Program Version,EnergyPlus-Windows-64 8.1.0.009, YMD=2014.10.29 14:33
1,5,Environment Title[],Latitude[deg],Longitude[deg],Time Zone[],Elevation[m]
2,6,Day of Simulation[],Month[],Day of Month[],DST Indicator[1=yes 0=no],Hour[],StartMinute[],EndMinute[],DayType
3,3,Cumulative Day of Simulation[],Month[],Day of Month[],DST Indicator[1=yes 0=no],DayType  ! When Daily Meters Requested
4,2,Cumulative Days of Simulation[],Month[]  ! When Monthly Meters Requested
5,1,Cumulative Days of Simulation[] ! When Run Period Meters Requested
12,1,Electricity:Facility [J] !TimeStep
130,1,Gas:Facility [J] !TimeStep
End of Data Dictionary
1,DENVER CENTENNIAL  GOLDEN   N ANN CLG .4% CONDNS DB=>MWB,  39.74,-105.18,  -7.00,1829.00
2,1, 7,21, 0, 1, 0.00,60.00,SummerDesignDay
12,2534627.48001192
130,218585.692158482
2,1, 7,21, 0, 2, 0.00,60.00,SummerDesignDay
12,1837355.62062614
130,212991.765246596
2,1, 7,21, 0, 3, 0.00,60.00,SummerDesignDay
12,1462869.18441665
130,212991.765246596
2,1, 7,21, 0, 4, 0.00,60.00,SummerDesignDay
12,1203016.17997773
130,1977425.34452699
2,1, 7,21, 0, 5, 0.00,60.00,SummerDesignDay
12,1141280.80580285
130,672114.259978059
2,1, 7,21, 0, 6, 0.00,60.00,SummerDesignDay
12,1257543.23042212
130,678032.271822445
2,1, 7,21, 0, 7, 0.00,60.00,SummerDesignDay
12,1687670.82915026
130,691788.901497752
2,1, 7,21, 0, 8, 0.00,60.00,SummerDesignDay
12,2255078.27843037
130,696737.578694145
2,1, 7,21, 0, 9, 0.00,60.00,SummerDesignDay
12,2194342.30441833
130,671246.15190194
2,1, 7,21, 0,10, 0.00,60.00,SummerDesignDay
12,2372301.28575192
130,4573454.25798424
2,1, 7,21, 0,11, 0.00,60.00,SummerDesignDay
12,2887394.68263379
130,652535.239309361
2,1, 7,21, 0,12, 0.00,60.00,SummerDesignDay
12,3418825.68928293
130,654399.764542321
2,1, 7,21, 0,13, 0.00,60.00,SummerDesignDay
12,3789711.89580736
130,652534.992397812
2,1, 7,21, 0,14, 0.00,60.00,SummerDesignDay
12,4319333.28194183
130,659993.295263106
2,1, 7,21, 0,15, 0.00,60.00,SummerDesignDay
12,4733867.82810627
130,665586.877783522
2,1, 7,21, 0,16, 0.00,60.00,SummerDesignDay
12,4934638.47760018
130,667451.591841485
2,1, 7,21, 0,17, 0.00,60.00,SummerDesignDay
12,5353597.84822889
130,680504.554208953
2,1, 7,21, 0,18, 0.00,60.00,SummerDesignDay
12,5980959.56965293
130,706609.731791184
2,1, 7,21, 0,19, 0.00,60.00,SummerDesignDay
12,6101511.50448521
130,725256.208772524
2,1, 7,21, 0,20, 0.00,60.00,SummerDesignDay
12,6154872.02666556
130,4655496.50471944
2,1, 7,21, 0,21, 0.00,60.00,SummerDesignDay
12,6518589.30657266
130,740173.258140561
2,1, 7,21, 0,22, 0.00,60.00,SummerDesignDay
12,6799658.02954095
130,736443.871803221
2,1, 7,21, 0,23, 0.00,60.00,SummerDesignDay
12,5586963.07356277
130,717797.387200244
2,1, 7,21, 0,24, 0.00,60.00,SummerDesignDay
12,4065015.29992286
130,701015.575317328
1,DENVER CENTENNIAL  GOLDEN   N ANN CLG .4% CONDNS DP=>MDB,  39.74,-105.18,  -7.00,1829.00
2,1, 7,21, 0, 1, 0.00,60.00,SummerDesignDay
12,1908655.13679282
130,3708274.73704141
2,1, 7,21, 0, 2, 0.00,60.00,SummerDesignDay
12,1566769.92224074
130,5169669.11155578
2,1, 7,21, 0, 3, 0.00,60.00,SummerDesignDay
12,1434426.23760981
130,6603820.73508674
2,1, 7,21, 0, 4, 0.00,60.00,SummerDesignDay
12,1427849.48836033
130,9773062.47908465
2,1, 7,21, 0, 5, 0.00,60.00,SummerDesignDay
12,1436566.95447882
130,9251954.87210326
2,1, 7,21, 0, 6, 0.00,60.00,SummerDesignDay
12,1568854.39350473
130,9720356.74024825
2,1, 7,21, 0, 7, 0.00,60.00,SummerDesignDay
12,1986028.78456984
130,9359316.13300848
2,1, 7,21, 0, 8, 0.00,60.00,SummerDesignDay
12,2520812.00692865
130,8424575.78042375
2,1, 7,21, 0, 9, 0.00,60.00,SummerDesignDay
12,2343102.74727088
130,11328435.9672817
2,1, 7,21, 0,10, 0.00,60.00,SummerDesignDay
12,2148259.88452304
130,6135687.84452566
2,1, 7,21, 0,11, 0.00,60.00,SummerDesignDay
12,2126611.09671278
130,4398387.97359494
2,1, 7,21, 0,12, 0.00,60.00,SummerDesignDay
12,2134305.79631719
130,2804213.45849379
2,1, 7,21, 0,13, 0.00,60.00,SummerDesignDay
12,2014012.97475677
130,1311001.85228185
2,1, 7,21, 0,14, 0.00,60.00,SummerDesignDay
12,1950485.33066344
130,712370.816792154
2,1, 7,21, 0,15, 0.00,60.00,SummerDesignDay
12,1926744.83372516
130,714658.444602087
2,1, 7,21, 0,16, 0.00,60.00,SummerDesignDay
12,1934519.72526101
130,712699.539004902
2,1, 7,21, 0,17, 0.00,60.00,SummerDesignDay
12,2243926.15944952
130,4645091.46911158
2,1, 7,21, 0,18, 0.00,60.00,SummerDesignDay
12,2856400.9224173
130,745042.728112534
2,1, 7,21, 0,19, 0.00,60.00,SummerDesignDay
12,3150945.10489277
130,763333.49015895
2,1, 7,21, 0,20, 0.00,60.00,SummerDesignDay
12,3462173.45062553
130,772696.893954801
2,1, 7,21, 0,21, 0.00,60.00,SummerDesignDay
12,4106474.18073811
130,783389.573207709
2,1, 7,21, 0,22, 0.00,60.00,SummerDesignDay
12,4697791.83249069
130,784107.345215022
2,1, 7,21, 0,23, 0.00,60.00,SummerDesignDay
12,3934995.38025478
130,1011013.87969789
2,1, 7,21, 0,24, 0.00,60.00,SummerDesignDay
12,2938637.44471091
130,2652305.86177846
1,DENVER CENTENNIAL  GOLDEN   N ANN CLG .4% CONDNS ENTH=>MDB,  39.74,-105.18,  -7.00,1829.00
2,1, 7,21, 0, 1, 0.00,60.00,SummerDesignDay
12,1787822.47115199
130,218585.692158482
2,1, 7,21, 0, 2, 0.00,60.00,SummerDesignDay
12,1395141.86920425
130,212991.765246596
2,1, 7,21, 0, 3, 0.00,60.00,SummerDesignDay
12,1213139.78768592
130,212991.765246596
2,1, 7,21, 0, 4, 0.00,60.00,SummerDesignDay
12,1165836.61217792
130,2060913.5219171
2,1, 7,21, 0, 5, 0.00,60.00,SummerDesignDay
12,1141280.80580285
130,703792.373938212
2,1, 7,21, 0, 6, 0.00,60.00,SummerDesignDay
12,1257543.23042212
130,711854.744672191
2,1, 7,21, 0, 7, 0.00,60.00,SummerDesignDay
12,1687670.82915026
130,729526.318264379
2,1, 7,21, 0, 8, 0.00,60.00,SummerDesignDay
12,2255078.27843037
130,736145.570718424
2,1, 7,21, 0, 9, 0.00,60.00,SummerDesignDay
12,2111812.98452721
130,4632889.41742873
2,1, 7,21, 0,10, 0.00,60.00,SummerDesignDay
12,1960230.7865402
130,686099.564651265
2,1, 7,21, 0,11, 0.00,60.00,SummerDesignDay
12,1998801.65767928
130,682437.437488351
2,1, 7,21, 0,12, 0.00,60.00,SummerDesignDay
12,2061760.21127641
130,677514.536836779
2,1, 7,21, 0,13, 0.00,60.00,SummerDesignDay
12,1993106.21103407
130,668135.172109647
2,1, 7,21, 0,14, 0.00,60.00,SummerDesignDay
12,1950485.33066344
130,667970.013297067
2,1, 7,21, 0,15, 0.00,60.00,SummerDesignDay
12,2132264.06451847
130,667956.486872274
2,1, 7,21, 0,16, 0.00,60.00,SummerDesignDay
12,3376979.5421287
130,667474.303540914
2,1, 7,21, 0,17, 0.00,60.00,SummerDesignDay
12,4040965.74249333
130,680526.7427021
2,1, 7,21, 0,18, 0.00,60.00,SummerDesignDay
12,4867019.47535226
130,4629406.13037601
2,1, 7,21, 0,19, 0.00,60.00,SummerDesignDay
12,4974793.81437984
130,725271.271001499
2,1, 7,21, 0,20, 0.00,60.00,SummerDesignDay
12,4955611.84224462
130,732727.456664606
2,1, 7,21, 0,21, 0.00,60.00,SummerDesignDay
12,5273204.87593727
130,740184.470417415
2,1, 7,21, 0,22, 0.00,60.00,SummerDesignDay
12,5524344.01263233
130,736453.601259849
2,1, 7,21, 0,23, 0.00,60.00,SummerDesignDay
12,4249981.18689498
130,717802.730356981
2,1, 7,21, 0,24, 0.00,60.00,SummerDesignDay
12,2872964.06254111
130,703531.396363746
1,DENVER CENTENNIAL  GOLDEN   N ANN CLG .4% CONDNS WB=>MDB,  39.74,-105.18,  -7.00,1829.00
2,1, 7,21, 0, 1, 0.00,60.00,SummerDesignDay
12,1787822.47115199
130,218585.692158482
2,1, 7,21, 0, 2, 0.00,60.00,SummerDesignDay
12,1395141.86920425
130,212991.765246596
2,1, 7,21, 0, 3, 0.00,60.00,SummerDesignDay
12,1213139.78768592
130,212991.765246596
2,1, 7,21, 0, 4, 0.00,60.00,SummerDesignDay
12,1165836.61217792
130,2063065.18921066
2,1, 7,21, 0, 5, 0.00,60.00,SummerDesignDay
12,1141280.80580285
130,704314.197460921
2,1, 7,21, 0, 6, 0.00,60.00,SummerDesignDay
12,1257543.23042212
130,712368.856117067
2,1, 7,21, 0, 7, 0.00,60.00,SummerDesignDay
12,1687670.82915026
130,730006.307440616
2,1, 7,21, 0, 8, 0.00,60.00,SummerDesignDay
12,2255078.27843037
130,736612.345792814
2,1, 7,21, 0, 9, 0.00,60.00,SummerDesignDay
12,2111812.98452721
130,4633345.57960878
2,1, 7,21, 0,10, 0.00,60.00,SummerDesignDay
12,1960230.7865402
130,686570.069060359
2,1, 7,21, 0,11, 0.00,60.00,SummerDesignDay
12,1998801.65767928
130,682942.59335878
2,1, 7,21, 0,12, 0.00,60.00,SummerDesignDay
12,2061760.21127641
130,678073.453108906
2,1, 7,21, 0,13, 0.00,60.00,SummerDesignDay
12,1993106.21103407
130,668766.222619229
2,1, 7,21, 0,14, 0.00,60.00,SummerDesignDay
12,1950485.33066344
130,668685.745848853
2,1, 7,21, 0,15, 0.00,60.00,SummerDesignDay
12,1941939.88917922
130,668432.054575284
2,1, 7,21, 0,16, 0.00,60.00,SummerDesignDay
12,2472546.08083088
130,667507.566089237
2,1, 7,21, 0,17, 0.00,60.00,SummerDesignDay
12,3091177.65341877
130,680511.261498103
2,1, 7,21, 0,18, 0.00,60.00,SummerDesignDay
12,3982369.64854103
130,4629402.31346479
2,1, 7,21, 0,19, 0.00,60.00,SummerDesignDay
12,4304173.19252023
130,725262.180276519
2,1, 7,21, 0,20, 0.00,60.00,SummerDesignDay
12,4484593.42058008
130,732721.15960265
2,1, 7,21, 0,21, 0.00,60.00,SummerDesignDay
12,4953254.67577474
130,740179.013132183
2,1, 7,21, 0,22, 0.00,60.00,SummerDesignDay
12,5322958.52242452
130,736449.502359237
2,1, 7,21, 0,23, 0.00,60.00,SummerDesignDay
12,4174031.56018835
130,717800.673364828
2,1, 7,21, 0,24, 0.00,60.00,SummerDesignDay
12,2872964.06254111
130,704026.742256462
1,DENVER CENTENNIAL  GOLDEN   N ANN HTG 99.6% CONDNS DB,  39.74,-105.18,  -7.00,1829.00
2,1,12,21, 0, 1, 0.00,60.00,WinterDesignDay
12,3433706.6517687
130,37913826.5198074
2,1,12,21, 0, 2, 0.00,60.00,WinterDesignDay
12,3029650.13188334
130,38366149.1693882
2,1,12,21, 0, 3, 0.00,60.00,WinterDesignDay
12,2855904.76609892
130,38660623.5789056
2,1,12,21, 0, 4, 0.00,60.00,WinterDesignDay
12,2806825.76741413
130,40843266.3614499
2,1,12,21, 0, 5, 0.00,60.00,WinterDesignDay
12,2763049.52697851
130,39504522.5667346
2,1,12,21, 0, 6, 0.00,60.00,WinterDesignDay
12,2930281.60866486
130,39494564.2003714
2,1,12,21, 0, 7, 0.00,60.00,WinterDesignDay
12,3670628.80139242
130,38847053.7241421
2,1,12,21, 0, 8, 0.00,60.00,WinterDesignDay
12,4804624.40170039
130,38717767.2076891
2,1,12,21, 0, 9, 0.00,60.00,WinterDesignDay
12,4641910.06182526
130,42956236.3015341
2,1,12,21, 0,10, 0.00,60.00,WinterDesignDay
12,3944336.5067056
130,39549882.3611896
2,1,12,21, 0,11, 0.00,60.00,WinterDesignDay
12,3891766.69539369
130,39401723.4215072
2,1,12,21, 0,12, 0.00,60.00,WinterDesignDay
12,3982790.58967717
130,39811949.9069743
2,1,12,21, 0,13, 0.00,60.00,WinterDesignDay
12,3912331.63879812
130,39874844.9724111
2,1,12,21, 0,14, 0.00,60.00,WinterDesignDay
12,3902571.5531586
130,39868586.0129399
2,1,12,21, 0,15, 0.00,60.00,WinterDesignDay
12,3961544.26813093
130,39819339.0475712
2,1,12,21, 0,16, 0.00,60.00,WinterDesignDay
12,4166310.24347604
130,39727493.8902591
2,1,12,21, 0,17, 0.00,60.00,WinterDesignDay
12,5151800.8697824
130,43103070.2117226
2,1,12,21, 0,18, 0.00,60.00,WinterDesignDay
12,6904336.67956593
130,37607586.8808566
2,1,12,21, 0,19, 0.00,60.00,WinterDesignDay
12,8046529.34793929
130,36763692.458504
2,1,12,21, 0,20, 0.00,60.00,WinterDesignDay
12,7983959.79657461
130,36335127.36426
2,1,12,21, 0,21, 0.00,60.00,WinterDesignDay
12,7405192.17809981
130,36339040.1353104
2,1,12,21, 0,22, 0.00,60.00,WinterDesignDay
12,6827288.95894536
130,36484738.3826222
2,1,12,21, 0,23, 0.00,60.00,WinterDesignDay
12,5707504.23127667
130,37044747.2694952
2,1,12,21, 0,24, 0.00,60.00,WinterDesignDay
12,4590486.89596017
130,37706380.2920899
1,DENVER CENTENNIAL  GOLDEN   N ANN HTG WIND 99.6% CONDNS WS=>MCDB,  39.74,-105.18,  -7.00,1829.00
2,1,12,21, 0, 1, 0.00,60.00,WinterDesignDay
12,2786551.72297668
130,19223769.0475969
2,1,12,21, 0, 2, 0.00,60.00,WinterDesignDay
12,2381295.27045466
130,19641437.2289131
2,1,12,21, 0, 3, 0.00,60.00,WinterDesignDay
12,2207494.64262306
130,19934315.6514547
2,1,12,21, 0, 4, 0.00,60.00,WinterDesignDay
12,2158500.91416609
130,22119421.0675781
2,1,12,21, 0, 5, 0.00,60.00,WinterDesignDay
12,2114853.7481432
130,20784404.9864054
2,1,12,21, 0, 6, 0.00,60.00,WinterDesignDay
12,2282461.45279937
130,20785294.7409194
2,1,12,21, 0, 7, 0.00,60.00,WinterDesignDay
12,3033154.58523747
130,20436578.5706453
2,1,12,21, 0, 8, 0.00,60.00,WinterDesignDay
12,4159575.20655817
130,20088524.049308
2,1,12,21, 0, 9, 0.00,60.00,WinterDesignDay
12,3996882.04535963
130,24327604.7906351
2,1,12,21, 0,10, 0.00,60.00,WinterDesignDay
12,3297888.48213964
130,20880240.526757
2,1,12,21, 0,11, 0.00,60.00,WinterDesignDay
12,3253973.77827275
130,20982044.0742295
2,1,12,21, 0,12, 0.00,60.00,WinterDesignDay
12,3335745.60813301
130,21125067.74919
2,1,12,21, 0,13, 0.00,60.00,WinterDesignDay
12,3265348.5349687
130,21189749.8643629
2,1,12,21, 0,14, 0.00,60.00,WinterDesignDay
12,3255787.21160254
130,21189231.2278764
2,1,12,21, 0,15, 0.00,60.00,WinterDesignDay
12,3315062.24320194
130,21148715.2709314
2,1,12,21, 0,16, 0.00,60.00,WinterDesignDay
12,3520266.1629901
130,21069518.1001308
2,1,12,21, 0,17, 0.00,60.00,WinterDesignDay
12,4507111.32340092
130,24484213.8335529
2,1,12,21, 0,18, 0.00,60.00,WinterDesignDay
12,6271562.491028
130,19332850.1454338
2,1,12,21, 0,19, 0.00,60.00,WinterDesignDay
12,7407226.01931742
130,18300391.9063138
2,1,12,21, 0,20, 0.00,60.00,WinterDesignDay
12,7345557.9894849
130,17897863.0647489
2,1,12,21, 0,21, 0.00,60.00,WinterDesignDay
12,6765963.7727463
130,17877903.3929429
2,1,12,21, 0,22, 0.00,60.00,WinterDesignDay
12,6186764.94702439
130,17986184.0758819
2,1,12,21, 0,23, 0.00,60.00,WinterDesignDay
12,5064833.23500837
130,18484187.3145581
2,1,12,21, 0,24, 0.00,60.00,WinterDesignDay
12,3945795.46549986
130,19087469.5010742
1,DENVER CENTENNIAL  GOLDEN   N ANN HUM_N 99.6% CONDNS DP=>MCDB,  39.74,-105.18,  -7.00,1829.00
2,1,12,21, 0, 1, 0.00,60.00,WinterDesignDay
12,3089862.91269736
130,27983500.7835903
2,1,12,21, 0, 2, 0.00,60.00,WinterDesignDay
12,2685551.35146582
130,28428457.7511591
2,1,12,21, 0, 3, 0.00,60.00,WinterDesignDay
12,2511778.15252158
130,28722128.3294246
2,1,12,21, 0, 4, 0.00,60.00,WinterDesignDay
12,2462752.87913842
130,30906322.7172036
2,1,12,21, 0, 5, 0.00,60.00,WinterDesignDay
12,2419037.53985683
130,29569337.7688144
2,1,12,21, 0, 6, 0.00,60.00,WinterDesignDay
12,2586423.24301211
130,29563816.0434403
2,1,12,21, 0, 7, 0.00,60.00,WinterDesignDay
12,3328433.42988081
130,28964333.4113809
2,1,12,21, 0, 8, 0.00,60.00,WinterDesignDay
12,4461415.3824859
130,28805772.3997793
2,1,12,21, 0, 9, 0.00,60.00,WinterDesignDay
12,4298687.9566046
130,33043863.565254
2,1,12,21, 0,10, 0.00,60.00,WinterDesignDay
12,3600763.28208928
130,29627369.1757026
2,1,12,21, 0,11, 0.00,60.00,WinterDesignDay
12,3549458.91541371
130,29515756.7134227
2,1,12,21, 0,12, 0.00,60.00,WinterDesignDay
12,3639088.83020115
130,29885724.5904223
2,1,12,21, 0,13, 0.00,60.00,WinterDesignDay
12,3568650.41954761
130,29949212.8646539
2,1,12,21, 0,14, 0.00,60.00,WinterDesignDay
12,3558942.96219728
130,29944473.8283196
2,1,12,21, 0,15, 0.00,60.00,WinterDesignDay
12,3617991.88621143
130,29897427.8063546
2,1,12,21, 0,16, 0.00,60.00,WinterDesignDay
12,3822865.50368739
130,29808691.3908948
2,1,12,21, 0,17, 0.00,60.00,WinterDesignDay
12,4808684.23957031
130,33193743.6300563
2,1,12,21, 0,18, 0.00,60.00,WinterDesignDay
12,6563256.69327271
130,27757079.2777694
2,1,12,21, 0,19, 0.00,60.00,WinterDesignDay
12,7704668.29522023
130,26890627.3877392
2,1,12,21, 0,20, 0.00,60.00,WinterDesignDay
12,7642265.53284053
130,26466879.2168879
2,1,12,21, 0,21, 0.00,60.00,WinterDesignDay
12,7063197.39376394
130,26462112.8493436
2,1,12,21, 0,22, 0.00,60.00,WinterDesignDay
12,6484991.35430189
130,26599065.5417644
2,1,12,21, 0,23, 0.00,60.00,WinterDesignDay
12,5364728.69872655
130,27145271.7059115
2,1,12,21, 0,24, 0.00,60.00,WinterDesignDay
12,4247224.43301767
130,27792842.0108884
1,RUN PERIOD 1,  39.74,-105.18,  -7.00,1829.00
2,1, 1, 1, 0, 1, 0.00,60.00,Sunday         
12,2754922.68873615
130,17548879.7790762
2,1, 1, 1, 0, 2, 0.00,60.00,Sunday         
12,2357659.27196248
130,18501105.024287
2,1, 1, 1, 0, 3, 0.00,60.00,Sunday         
12,2194963.2122862
130,19269291.2750097
2,1, 1, 1, 0, 4, 0.00,60.00,Sunday         
12,2105064.22522739
130,20413125.8888126
2,1, 1, 1, 0, 5, 0.00,60.00,Sunday         
12,2083239.273121
130,23483879.5678367
2,1, 1, 1, 0, 6, 0.00,60.00,Sunday         
12,2205754.88038242
130,18082599.4828991
2,1, 1, 1, 0, 7, 0.00,60.00,Sunday         
12,2971021.68538162
130,21325647.0840349
2,1, 1, 1, 0, 8, 0.00,60.00,Sunday         
12,4129480.3649255
130,20669498.9591313
2,1, 1, 1, 0, 9, 0.00,60.00,Sunday         
12,3977570.70921489
130,16097086.903833
2,1, 1, 1, 0,10, 0.00,60.00,Sunday         
12,3289760.32823178
130,19402635.5886091
2,1, 1, 1, 0,11, 0.00,60.00,Sunday         
12,3249646.00627716
130,18988438.8708075
2,1, 1, 1, 0,12, 0.00,60.00,Sunday         
12,3407161.46246312
130,21189585.5224884
2,1, 1, 1, 0,13, 0.00,60.00,Sunday         
12,3234364.31965987
130,18825381.4676791
2,1, 1, 1, 0,14, 0.00,60.00,Sunday         
12,3247456.22836033
130,16037287.6100689
2,1, 1, 1, 0,15, 0.00,60.00,Sunday         
12,3297993.25805125
130,20422504.0072849
2,1, 1, 1, 0,16, 0.00,60.00,Sunday         
12,3452746.59511133
130,14674081.7604649
2,1, 1, 1, 0,17, 0.00,60.00,Sunday         
12,4456367.39693323
130,18984185.5389958
2,1, 1, 1, 0,18, 0.00,60.00,Sunday         
12,6254453.10763121
130,14836029.2112316
2,1, 1, 1, 0,19, 0.00,60.00,Sunday         
12,7405211.6987834
130,18233017.8335771
2,1, 1, 1, 0,20, 0.00,60.00,Sunday         
12,7522008.22975969
130,22902197.8040717
2,1, 1, 1, 0,21, 0.00,60.00,Sunday         
12,6860528.15114213
130,20523287.99737
2,1, 1, 1, 0,22, 0.00,60.00,Sunday         
12,6288129.67866911
130,16858427.456972
2,1, 1, 1, 0,23, 0.00,60.00,Sunday         
12,5280020.55176761
130,25386194.2223657
2,1, 1, 1, 0,24, 0.00,60.00,Sunday         
12,4133667.776596
130,22725472.230365
2,2, 1, 2, 0, 1, 0.00,60.00,Monday         
12,2850016.28160113
130,25498917.0668235
2,2, 1, 2, 0, 2, 0.00,60.00,Monday         
12,2485996.95535528
130,23183611.1650391
2,2, 1, 2, 0, 3, 0.00,60.00,Monday         
12,2330080.02626787
130,23992978.458453
2,2, 1, 2, 0, 4, 0.00,60.00,Monday         
12,2326007.25641731
130,25480449.1061933
2,2, 1, 2, 0, 5, 0.00,60.00,Monday         
12,2324952.59426326
130,30775150.2362259
2,2, 1, 2, 0, 6, 0.00,60.00,Monday         
12,2582462.26541073
130,29449319.0401281
2,2, 1, 2, 0, 7, 0.00,60.00,Monday         
12,3323459.38740515
130,32745757.5030349
2,2, 1, 2, 0, 8, 0.00,60.00,Monday         
12,4441629.17420597
130,28234235.916939
2,2, 1, 2, 0, 9, 0.00,60.00,Monday         
12,4223639.85596079
130,30879741.1900551
2,2, 1, 2, 0,10, 0.00,60.00,Monday         
12,4941872.45153413
130,72372842.5761807
2,2, 1, 2, 0,11, 0.00,60.00,Monday         
12,4894530.16830634
130,72378593.8144898
2,2, 1, 2, 0,12, 0.00,60.00,Monday         
12,4971447.14611224
130,72387956.1297699
2,2, 1, 2, 0,13, 0.00,60.00,Monday         
12,4898712.98211911
130,72431769.8145697
2,2, 1, 2, 0,14, 0.00,60.00,Monday         
12,4889559.34541994
130,68479901.5567121
2,2, 1, 2, 0,15, 0.00,60.00,Monday         
12,3937026.20675666
130,43044388.475222
2,2, 1, 2, 0,16, 0.00,60.00,Monday         
12,4193626.13609428
130,40516749.5517821
2,2, 1, 2, 0,17, 0.00,60.00,Monday         
12,4877036.42450206
130,35169192.4040581
2,2, 1, 2, 0,18, 0.00,60.00,Monday         
12,6524158.66699637
130,26627808.1911396
2,2, 1, 2, 0,19, 0.00,60.00,Monday         
12,7670987.92734119
130,29842771.5884277
2,2, 1, 2, 0,20, 0.00,60.00,Monday         
12,7689184.54878256
130,31747149.4268749
2,2, 1, 2, 0,21, 0.00,60.00,Monday         
12,6996075.65836574
130,28448757.6344936
2,2, 1, 2, 0,22, 0.00,60.00,Monday         
12,6415483.4040141
130,28516287.7760476
2,2, 1, 2, 0,23, 0.00,60.00,Monday         
12,5348923.73513913
130,26688717.8703623
2,2, 1, 2, 0,24, 0.00,60.00,Monday         
12,4229180.57756343
130,31195799.9088554
2,3, 1, 3, 0, 1, 0.00,60.00,Tuesday        
12,3096199.36065023
130,28684857.3036584
2,3, 1, 3, 0, 2, 0.00,60.00,Tuesday        
12,2716955.59570155
130,29853781.8016307
2,3, 1, 3, 0, 3, 0.00,60.00,Tuesday        
12,2573043.87031056
130,31009859.2076764
2,3, 1, 3, 0, 4, 0.00,60.00,Tuesday        
12,2560456.04027796
130,36174493.1183616
2,3, 1, 3, 0, 5, 0.00,60.00,Tuesday        
12,2485423.47095494
130,31486487.670599
2,3, 1, 3, 0, 6, 0.00,60.00,Tuesday        
12,2647980.66191307
130,31341513.0904579
2,3, 1, 3, 0, 7, 0.00,60.00,Tuesday        
12,3376153.52015931
130,34267471.0943551
2,3, 1, 3, 0, 8, 0.00,60.00,Tuesday        
12,4602096.77896626
130,36794355.3759644
2,3, 1, 3, 0, 9, 0.00,60.00,Tuesday        
12,5658401.3231216
130,72441354.7087356
2,3, 1, 3, 0,10, 0.00,60.00,Tuesday        
12,4375154.61924034
130,55929048.2834435
2,3, 1, 3, 0,11, 0.00,60.00,Tuesday        
12,4894530.16830634
130,68474723.4791065
2,3, 1, 3, 0,12, 0.00,60.00,Tuesday        
12,4971447.14611224
130,72411060.4719348
2,3, 1, 3, 0,13, 0.00,60.00,Tuesday        
12,4898712.98211911
130,72392168.9893107
2,3, 1, 3, 0,14, 0.00,60.00,Tuesday        
12,4889559.34541994
130,72408963.6723145
2,3, 1, 3, 0,15, 0.00,60.00,Tuesday        
12,4950529.56378306
130,68494450.9980069
2,3, 1, 3, 0,16, 0.00,60.00,Tuesday        
12,5158573.1672789
130,72424455.626369
2,3, 1, 3, 0,17, 0.00,60.00,Tuesday        
12,6163694.08424241
130,68542041.0736144
2,3, 1, 3, 0,18, 0.00,60.00,Tuesday        
12,7972048.78427538
130,72520680.8280569
2,3, 1, 3, 0,19, 0.00,60.00,Tuesday        
12,9144436.14618245
130,72541922.2443377
2,3, 1, 3, 0,20, 0.00,60.00,Tuesday        
12,9097095.65778611
130,68651916.7469077
2,3, 1, 3, 0,21, 0.00,60.00,Tuesday        
12,8518582.28572092
130,72603073.8667188
2,3, 1, 3, 0,22, 0.00,60.00,Tuesday        
12,7453882.75326515
130,58524750.4072834
2,3, 1, 3, 0,23, 0.00,60.00,Tuesday        
12,6402890.76616082
130,61055488.4893637
2,3, 1, 3, 0,24, 0.00,60.00,Tuesday        
12,4762005.07838189
130,42660005.4035407
2,4, 1, 4, 0, 1, 0.00,60.00,Wednesday      
12,4471596.54013823
130,72445013.6900184
2,4, 1, 4, 0, 2, 0.00,60.00,Wednesday      
12,3372754.21646928
130,48798552.0030545
2,4, 1, 4, 0, 3, 0.00,60.00,Wednesday      
12,2948713.42621674
130,41861440.6112105
2,4, 1, 4, 0, 4, 0.00,60.00,Wednesday      
12,2706251.35292162
130,36462115.8456954
2,4, 1, 4, 0, 5, 0.00,60.00,Wednesday      
12,2501210.86475263
130,31942441.0086165
2,4, 1, 4, 0, 6, 0.00,60.00,Wednesday      
12,2647587.42979663
130,35253613.609642
2,4, 1, 4, 0, 7, 0.00,60.00,Wednesday      
12,3385032.81360456
130,30598839.3063964
2,4, 1, 4, 0, 8, 0.00,60.00,Wednesday      
12,5833311.22545182
130,72494780.3180713
2,4, 1, 4, 0, 9, 0.00,60.00,Wednesday      
12,5658401.3231216
130,72446066.3231703
2,4, 1, 4, 0,10, 0.00,60.00,Wednesday      
12,4941872.45153413
130,72390454.6812567
2,4, 1, 4, 0,11, 0.00,60.00,Wednesday      
12,4894530.16830634
130,72437664.611783
2,4, 1, 4, 0,12, 0.00,60.00,Wednesday      
12,4971447.14611224
130,72421781.298862
2,4, 1, 4, 0,13, 0.00,60.00,Wednesday      
12,4898712.98211911
130,72387740.1110006
2,4, 1, 4, 0,14, 0.00,60.00,Wednesday      
12,4889559.34541994
130,68451834.3480968
2,4, 1, 4, 0,15, 0.00,60.00,Wednesday      
12,4950529.56378306
130,72393723.7237333
2,4, 1, 4, 0,16, 0.00,60.00,Wednesday      
12,5158573.1672789
130,68472432.0982126
2,4, 1, 4, 0,17, 0.00,60.00,Wednesday      
12,6163694.08424241
130,72423990.9505609
2,4, 1, 4, 0,18, 0.00,60.00,Wednesday      
12,7972048.78427539
130,72452089.9998575
2,4, 1, 4, 0,19, 0.00,60.00,Wednesday      
12,9144436.14618245
130,68545550.4073323
2,4, 1, 4, 0,20, 0.00,60.00,Wednesday      
12,9097095.65778611
130,72485664.4134572
2,4, 1, 4, 0,21, 0.00,60.00,Wednesday      
12,8518582.28572092
130,72565154.2962185
2,4, 1, 4, 0,22, 0.00,60.00,Wednesday      
12,7935439.30935605
130,72531438.0306984
2,4, 1, 4, 0,23, 0.00,60.00,Wednesday      
12,6795289.60236248
130,68576371.0309784
2,4, 1, 4, 0,24, 0.00,60.00,Wednesday      
12,5654485.92060427
130,72465045.2177909
2,5, 1, 5, 0, 1, 0.00,60.00,Thursday       
12,4471596.54013823
130,68504612.3567187
2,5, 1, 5, 0, 2, 0.00,60.00,Thursday       
12,4051585.76921152
130,72399757.8393038
2,5, 1, 5, 0, 3, 0.00,60.00,Thursday       
12,3867644.04283239
130,68500014.5188555
2,5, 1, 5, 0, 4, 0.00,60.00,Thursday       
12,3811969.18057369
130,68528172.5344399
2,5, 1, 5, 0, 5, 0.00,60.00,Thursday       
12,3763130.4044439
130,68526979.193268
2,5, 1, 5, 0, 6, 0.00,60.00,Thursday       
12,3930999.59720927
130,72466908.8457392
2,5, 1, 5, 0, 7, 0.00,60.00,Thursday       
12,4694449.27010122
130,68489144.6675016
2,5, 1, 5, 0, 8, 0.00,60.00,Thursday       
12,5833311.22545182
130,72439335.7241922
2,5, 1, 5, 0, 9, 0.00,60.00,Thursday       
12,5658401.3231216
130,72410930.4966807
2,5, 1, 5, 0,10, 0.00,60.00,Thursday       
12,4941872.45153413
130,72389787.2641352
2,5, 1, 5, 0,11, 0.00,60.00,Thursday       
12,4894530.16830634
130,72394789.9077964
2,5, 1, 5, 0,12, 0.00,60.00,Thursday       
12,4971447.14611224
130,72414772.6044111
2,5, 1, 5, 0,13, 0.00,60.00,Thursday       
12,4898712.98211911
130,72393913.1952155
2,5, 1, 5, 0,14, 0.00,60.00,Thursday       
12,4889559.34541994
130,68486016.4789931
2,5, 1, 5, 0,15, 0.00,60.00,Thursday       
12,4950529.56378306
130,72422913.8983798
2,5, 1, 5, 0,16, 0.00,60.00,Thursday       
12,5158573.1672789
130,68467163.0069523
2,5, 1, 5, 0,17, 0.00,60.00,Thursday       
12,6163694.08424241
130,72428906.2387249
2,5, 1, 5, 0,18, 0.00,60.00,Thursday       
12,7972048.78427539
130,68521492.5986714
2,5, 1, 5, 0,19, 0.00,60.00,Thursday       
12,9144436.14618245
130,72435861.5204527
2,5, 1, 5, 0,20, 0.00,60.00,Thursday       
12,9097095.65778611
130,72464808.3771574
2,5, 1, 5, 0,21, 0.00,60.00,Thursday       
12,8518582.28572092
130,72471663.7567226
2,5, 1, 5, 0,22, 0.00,60.00,Thursday       
12,7935439.30935605
130,72557098.5312989
2,5, 1, 5, 0,23, 0.00,60.00,Thursday       
12,6795289.60236248
130,68592044.4494943
2,5, 1, 5, 0,24, 0.00,60.00,Thursday       
12,5654485.92060427
130,72474758.5453958
2,6, 1, 6, 0, 1, 0.00,60.00,Friday         
12,4471596.54013823
130,68513511.4721185
2,6, 1, 6, 0, 2, 0.00,60.00,Friday         
12,4051585.76921152
130,68465552.1207014
2,6, 1, 6, 0, 3, 0.00,60.00,Friday         
12,3867644.04283239
130,72434354.7278267
2,6, 1, 6, 0, 4, 0.00,60.00,Friday         
12,3811969.18057369
130,68498144.1366706
2,6, 1, 6, 0, 5, 0.00,60.00,Friday         
12,3763130.4044439
130,68529626.9366493
2,6, 1, 6, 0, 6, 0.00,60.00,Friday         
12,3930999.59720927
130,72440969.4216413
2,6, 1, 6, 0, 7, 0.00,60.00,Friday         
12,4694449.27010122
130,68505728.7111692
2,6, 1, 6, 0, 8, 0.00,60.00,Friday         
12,5833311.22545182
130,72438180.4771472
2,6, 1, 6, 0, 9, 0.00,60.00,Friday         
12,5658401.3231216
130,72372844.4385756
2,6, 1, 6, 0,10, 0.00,60.00,Friday         
12,4941872.45153413
130,72330886.9608245
2,6, 1, 6, 0,11, 0.00,60.00,Friday         
12,4686498.04190687
130,66282574.2715687
2,6, 1, 6, 0,12, 0.00,60.00,Friday         
12,4492021.32195946
130,58443836.3918144
2,6, 1, 6, 0,13, 0.00,60.00,Friday         
12,4136571.67988173
130,46350871.2394689
2,6, 1, 6, 0,14, 0.00,60.00,Friday         
12,4790209.84854089
130,69428380.6241994
2,6, 1, 6, 0,15, 0.00,60.00,Friday         
12,4328456.25620732
130,50415779.799378
2,6, 1, 6, 0,16, 0.00,60.00,Friday         
12,3993012.15414706
130,38646470.5986389
2,6, 1, 6, 0,17, 0.00,60.00,Friday         
12,6163694.08424241
130,68438804.3661159
2,6, 1, 6, 0,18, 0.00,60.00,Friday         
12,5986431.9760207
130,15025203.7426634
2,6, 1, 6, 0,19, 0.00,60.00,Friday         
12,7214110.80439655
130,16648375.7378516
2,6, 1, 6, 0,20, 0.00,60.00,Friday         
12,7152121.48310006
130,16236778.3770781
2,6, 1, 6, 0,21, 0.00,60.00,Friday         
12,6612597.7516633
130,13448535.8565393
2,6, 1, 6, 0,22, 0.00,60.00,Friday         
12,6073476.15741349
130,18639612.8849186
2,6, 1, 6, 0,23, 0.00,60.00,Friday         
12,5024835.51381934
130,21253570.7708236
2,6, 1, 6, 0,24, 0.00,60.00,Friday         
12,3907080.870274
130,17969274.6735351
2,7, 1, 7, 0, 1, 0.00,60.00,Saturday       
12,2794305.98803883
130,23128326.9406714
2,7, 1, 7, 0, 2, 0.00,60.00,Saturday       
12,2418969.11251096
130,20790215.4969631
2,7, 1, 7, 0, 3, 0.00,60.00,Saturday       
12,2260107.9707478
130,21669152.2108281
2,7, 1, 7, 0, 4, 0.00,60.00,Saturday       
12,2145145.97764516
130,20094227.9137201
2,7, 1, 7, 0, 5, 0.00,60.00,Saturday       
12,2149242.35486177
130,21466874.5171108
2,7, 1, 7, 0, 6, 0.00,60.00,Saturday       
12,2294777.76644762
130,24577304.0470016
2,7, 1, 7, 0, 7, 0.00,60.00,Saturday       
12,2988497.69108029
130,17905775.0640221
2,7, 1, 7, 0, 8, 0.00,60.00,Saturday       
12,4184809.9588638
130,22267548.9021789
2,7, 1, 7, 0, 9, 0.00,60.00,Saturday       
12,3986576.59006886
130,20283435.1507656
2,7, 1, 7, 0,10, 0.00,60.00,Saturday       
12,3215413.73518589
130,17255349.3440891
2,7, 1, 7, 0,11, 0.00,60.00,Saturday       
12,3095525.86856239
130,14537339.5599977
2,7, 1, 7, 0,12, 0.00,60.00,Saturday       
12,3110410.67229032
130,12619313.7339846
2,7, 1, 7, 0,13, 0.00,60.00,Saturday       
12,2938939.27263213
130,6368815.61072163
2,7, 1, 7, 0,14, 0.00,60.00,Saturday       
12,2875940.75461516
130,9232350.72482614
2,7, 1, 7, 0,15, 0.00,60.00,Saturday       
12,2892909.64885445
130,4799174.852276
2,7, 1, 7, 0,16, 0.00,60.00,Saturday       
12,3169133.15814696
130,10407482.5004096
2,7, 1, 7, 0,17, 0.00,60.00,Saturday       
12,4131027.2721199
130,5663824.13486045
2,7, 1, 7, 0,18, 0.00,60.00,Saturday       
12,5961733.6687867
130,10306753.1386021
2,7, 1, 7, 0,19, 0.00,60.00,Saturday       
12,7167078.11703082
130,11356131.4057081
2,7, 1, 7, 0,20, 0.00,60.00,Saturday       
12,7190774.98922196
130,13336283.0684398
2,7, 1, 7, 0,21, 0.00,60.00,Saturday       
12,6665049.25602404
130,10952388.9653891
2,7, 1, 7, 0,22, 0.00,60.00,Saturday       
12,6113985.05953112
130,15754406.3703832
2,7, 1, 7, 0,23, 0.00,60.00,Saturday       
12,5001694.06008606
130,17348142.7461877
2,7, 1, 7, 0,24, 0.00,60.00,Saturday       
12,3879212.14040691
130,15376698.5757251
2,8, 1, 8, 0, 1, 0.00,60.00,Sunday         
12,2725440.06679144
130,21139501.8536222
2,8, 1, 8, 0, 2, 0.00,60.00,Sunday         
12,2320544.95898883
130,17947692.1030991