Program Version,EnergyPlus-Windows-64 8.1.0.009, YMD=2014.11.04 09:32
1,5,Environment Title[],Latitude[deg],Longitude[deg],Time Zone[],Elevation[m]
2,6,Day of Simulation[],Month[],Day of Month[],DST Indicator[1=yes 0=no],Hour[],StartMinute[],EndMinute[],DayType
3,3,Cumulative Day of Simulation[],Month[],Day of Month[],DST Indicator[1=yes 0=no],DayType  ! When Daily Report Variables Requested
4,2,Cumulative Days of Simulation[],Month[]  ! When Monthly Report Variables Requested
5,1,Cumulative Days of Simulation[] ! When Run Period Report Variables Requested
12,1,Electricity:Facility [J] !TimeStep
130,1,Gas:Facility [J] !TimeStep
End of Data Dictionary
1,DENVER CENTENNIAL  GOLDEN   N ANN CLG .4% CONDNS DB=>MWB,  39.74,-105.18,  -7.00,1829.00
2,1, 7,21, 0, 1, 0.00,60.00,SummerDesignDay
12,1787822.47115199
130,135670.712818216
2,1, 7,21, 0, 2, 0.00,60.00,SummerDesignDay
12,1395141.86920425
130,130895.40935685
2,1, 7,21, 0, 3, 0.00,60.00,SummerDesignDay
12,1213139.78768592
130,130895.40935685
2,1, 7,21, 0, 4, 0.00,60.00,SummerDesignDay
12,1165836.61217792
130,2201992.93420679
2,1, 7,21, 0, 5, 0.00,60.00,SummerDesignDay
12,1141280.80580285
130,692994.567573817
2,1, 7,21, 0, 6, 0.00,60.00,SummerDesignDay
12,1260877.63153334
130,785132.133690797
2,1, 7,21, 0, 7, 0.00,60.00,SummerDesignDay
12,1687670.82915026
130,707212.447090076
2,1, 7,21, 0, 8, 0.00,60.00,SummerDesignDay
12,2255078.27843037
130,697156.218238455
2,1, 7,21, 0, 9, 0.00,60.00,SummerDesignDay
12,2111812.98452721
130,653755.609387014
2,1, 7,21, 0,10, 0.00,60.00,SummerDesignDay
12,2872648.94246525
130,621189.445670621
2,1, 7,21, 0,11, 0.00,60.00,SummerDesignDay
12,4679097.70729691
130,621677.247106573
2,1, 7,21, 0,12, 0.00,60.00,SummerDesignDay
12,7287687.79033368
130,623255.827327517
2,1, 7,21, 0,13, 0.00,60.00,SummerDesignDay
12,9636114.97964955
130,621663.676843798
2,1, 7,21, 0,14, 0.00,60.00,SummerDesignDay
12,11609976.2826481
130,628030.67174648
2,1, 7,21, 0,15, 0.00,60.00,SummerDesignDay
12,13010604.6040499
130,632806.008232696
2,1, 7,21, 0,16, 0.00,60.00,SummerDesignDay
12,13515551.2242748
130,634398.138133493
2,1, 7,21, 0,17, 0.00,60.00,SummerDesignDay
12,13417970.0814297
130,645540.878449761
2,1, 7,21, 0,18, 0.00,60.00,SummerDesignDay
12,13053002.2988529
130,667825.758514494
2,1, 7,21, 0,19, 0.00,60.00,SummerDesignDay
12,11154922.4186532
130,683743.311489124
2,1, 7,21, 0,20, 0.00,60.00,SummerDesignDay
12,8984092.91017777
130,690110.143861754
2,1, 7,21, 0,21, 0.00,60.00,SummerDesignDay
12,7710987.06406973
130,696477.118322263
2,1, 7,21, 0,22, 0.00,60.00,SummerDesignDay
12,6912771.03106231
130,693293.697795986
2,1, 7,21, 0,23, 0.00,60.00,SummerDesignDay
12,5030934.7749249
130,677376.298231973
2,1, 7,21, 0,24, 0.00,60.00,SummerDesignDay
12,3230951.47223719
130,663051.086748134
1,DENVER CENTENNIAL  GOLDEN   N ANN CLG .4% CONDNS DP=>MDB,  39.74,-105.18,  -7.00,1829.00
2,1, 7,21, 0, 1, 0.00,60.00,SummerDesignDay
12,2600042.49260606
130,21337523.5289048
2,1, 7,21, 0, 2, 0.00,60.00,SummerDesignDay
12,2347750.17315956
130,24997385.4223519
2,1, 7,21, 0, 3, 0.00,60.00,SummerDesignDay
12,2274295.98492369
130,29474809.5266484
2,1, 7,21, 0, 4, 0.00,60.00,SummerDesignDay
12,2311832.54365805
130,30614918.6519894
2,1, 7,21, 0, 5, 0.00,60.00,SummerDesignDay
12,2355788.0896711
130,32398545.4723418
2,1, 7,21, 0, 6, 0.00,60.00,SummerDesignDay
12,2462489.29725141
130,32153721.9435999
2,1, 7,21, 0, 7, 0.00,60.00,SummerDesignDay
12,2814818.55180571
130,30134040.7936967
2,1, 7,21, 0, 8, 0.00,60.00,SummerDesignDay
12,3126336.88564714
130,23460784.7691022
2,1, 7,21, 0, 9, 0.00,60.00,SummerDesignDay
12,2745087.6978477
130,17227859.4355659
2,1, 7,21, 0,10, 0.00,60.00,SummerDesignDay
12,2345871.31772711
130,10746210.5406637
2,1, 7,21, 0,11, 0.00,60.00,SummerDesignDay
12,2174794.79821528
130,5275254.22736232
2,1, 7,21, 0,12, 0.00,60.00,SummerDesignDay
12,2079393.72469843
130,1143092.31096544
2,1, 7,21, 0,13, 0.00,60.00,SummerDesignDay
12,1993106.21103407
130,665683.210689868
2,1, 7,21, 0,14, 0.00,60.00,SummerDesignDay
12,1950485.33066344
130,653731.176727846
2,1, 7,21, 0,15, 0.00,60.00,SummerDesignDay
12,1926744.83372516
130,641782.320984911
2,1, 7,21, 0,16, 0.00,60.00,SummerDesignDay
12,2717063.18243912
130,634995.533014685
2,1, 7,21, 0,17, 0.00,60.00,SummerDesignDay
12,3422193.09849993
130,645564.328629246
2,1, 7,21, 0,18, 0.00,60.00,SummerDesignDay
12,3454705.93824805
130,667835.560880778
2,1, 7,21, 0,19, 0.00,60.00,SummerDesignDay
12,3150945.10489277
130,688100.980730771
2,1, 7,21, 0,20, 0.00,60.00,SummerDesignDay
12,3462173.45062553
130,718199.440374642
2,1, 7,21, 0,21, 0.00,60.00,SummerDesignDay
12,4112130.03854856
130,898006.463569508
2,1, 7,21, 0,22, 0.00,60.00,SummerDesignDay
12,4866159.93057915
130,5147486.47334033
2,1, 7,21, 0,23, 0.00,60.00,SummerDesignDay
12,4344031.28721039
130,11630792.1795367
2,1, 7,21, 0,24, 0.00,60.00,SummerDesignDay
12,3507054.88524696
130,17274631.0768865
1,DENVER CENTENNIAL  GOLDEN   N ANN CLG .4% CONDNS ENTH=>MDB,  39.74,-105.18,  -7.00,1829.00
2,1, 7,21, 0, 1, 0.00,60.00,SummerDesignDay
12,1845799.55305536
130,1649080.28750562
2,1, 7,21, 0, 2, 0.00,60.00,SummerDesignDay
12,1594847.17199471
130,5343919.37394144
2,1, 7,21, 0, 3, 0.00,60.00,SummerDesignDay
12,1527556.7616137
130,9978774.16770904
2,1, 7,21, 0, 4, 0.00,60.00,SummerDesignDay
12,1584320.22257814
130,11624230.4786944
2,1, 7,21, 0, 5, 0.00,60.00,SummerDesignDay
12,1641006.41737378
130,13740172.123394
2,1, 7,21, 0, 6, 0.00,60.00,SummerDesignDay
12,1766492.82411406
130,13985714.4999478
2,1, 7,21, 0, 7, 0.00,60.00,SummerDesignDay
12,2129677.44325587
130,12249402.6786268
2,1, 7,21, 0, 8, 0.00,60.00,SummerDesignDay
12,2496707.9187868
130,7025212.71420109
2,1, 7,21, 0, 9, 0.00,60.00,SummerDesignDay
12,2166850.11565454
130,2133786.66392701
2,1, 7,21, 0,10, 0.00,60.00,SummerDesignDay
12,1960230.7865402
130,665964.662662186
2,1, 7,21, 0,11, 0.00,60.00,SummerDesignDay
12,1998801.65767928
130,644871.027919749
2,1, 7,21, 0,12, 0.00,60.00,SummerDesignDay
12,3120288.68467326
130,625787.763198694
2,1, 7,21, 0,13, 0.00,60.00,SummerDesignDay
12,6061816.88953616
130,621800.023058284
2,1, 7,21, 0,14, 0.00,60.00,SummerDesignDay
12,8506642.91843336
130,628149.098974072
2,1, 7,21, 0,15, 0.00,60.00,SummerDesignDay
12,10312853.3361812
130,632954.699376992
2,1, 7,21, 0,16, 0.00,60.00,SummerDesignDay
12,10726774.1665781
130,634543.919670776
2,1, 7,21, 0,17, 0.00,60.00,SummerDesignDay
12,10430329.1676366
130,645638.745581872
2,1, 7,21, 0,18, 0.00,60.00,SummerDesignDay
12,10046835.7022149
130,667891.12506895
2,1, 7,21, 0,19, 0.00,60.00,SummerDesignDay
12,8374677.93401456
130,683787.383503951
2,1, 7,21, 0,20, 0.00,60.00,SummerDesignDay
12,6142670.04739545
130,690136.756825826
2,1, 7,21, 0,21, 0.00,60.00,SummerDesignDay
12,5009996.59893305
130,696490.865728997
2,1, 7,21, 0,22, 0.00,60.00,SummerDesignDay
12,4697791.83249069
130,697473.48880846
2,1, 7,21, 0,23, 0.00,60.00,SummerDesignDay
12,3926698.57198866
130,698904.267488879
2,1, 7,21, 0,24, 0.00,60.00,SummerDesignDay
12,2872964.06254111
130,704493.834933201
1,DENVER CENTENNIAL  GOLDEN   N ANN CLG .4% CONDNS WB=>MDB,  39.74,-105.18,  -7.00,1829.00
2,1, 7,21, 0, 1, 0.00,60.00,SummerDesignDay
12,1853365.38768365
130,1846575.68035828
2,1, 7,21, 0, 2, 0.00,60.00,SummerDesignDay
12,1602139.26570095
130,5534269.14789066
2,1, 7,21, 0, 3, 0.00,60.00,SummerDesignDay
12,1533815.04629754
130,10142417.2218213
2,1, 7,21, 0, 4, 0.00,60.00,SummerDesignDay
12,1588306.3928118
130,11728280.6133648
2,1, 7,21, 0, 5, 0.00,60.00,SummerDesignDay
12,1644263.3341818
130,13825183.7948965
2,1, 7,21, 0, 6, 0.00,60.00,SummerDesignDay
12,1769070.95486391
130,14053011.9594648
2,1, 7,21, 0, 7, 0.00,60.00,SummerDesignDay
12,2131745.50500272
130,12303386.4804039
2,1, 7,21, 0, 8, 0.00,60.00,SummerDesignDay
12,2498672.82756874
130,7076503.87374896
2,1, 7,21, 0, 9, 0.00,60.00,SummerDesignDay
12,2169470.30490938
130,2202182.99184799
2,1, 7,21, 0,10, 0.00,60.00,SummerDesignDay
12,1960230.7865402
130,666429.11726078
2,1, 7,21, 0,11, 0.00,60.00,SummerDesignDay
12,1998801.65767928
130,645618.699403947
2,1, 7,21, 0,12, 0.00,60.00,SummerDesignDay
12,2668093.37179883
130,626018.584006083
2,1, 7,21, 0,13, 0.00,60.00,SummerDesignDay
12,4644537.91204605
130,621796.020193137
2,1, 7,21, 0,14, 0.00,60.00,SummerDesignDay
12,6460652.11729919
130,628077.552077093
2,1, 7,21, 0,15, 0.00,60.00,SummerDesignDay
12,8014119.76375959
130,632860.124074989
2,1, 7,21, 0,16, 0.00,60.00,SummerDesignDay
12,8669095.83488147
130,634447.904291929
2,1, 7,21, 0,17, 0.00,60.00,SummerDesignDay
12,8793755.56558335
130,645573.493623048
2,1, 7,21, 0,18, 0.00,60.00,SummerDesignDay
12,8674430.0362355
130,667848.646255661
2,1, 7,21, 0,19, 0.00,60.00,SummerDesignDay
12,7433065.32787705
130,683761.125121856
2,1, 7,21, 0,20, 0.00,60.00,SummerDesignDay
12,5648114.30450935
130,690122.707505558
2,1, 7,21, 0,21, 0.00,60.00,SummerDesignDay
12,4790456.11709292
130,696484.338955795
2,1, 7,21, 0,22, 0.00,60.00,SummerDesignDay
12,4697791.83249069
130,698456.864116178
2,1, 7,21, 0,23, 0.00,60.00,SummerDesignDay
12,3926698.57198866
130,700141.511888373
2,1, 7,21, 0,24, 0.00,60.00,SummerDesignDay
12,2872964.06254111
130,705668.108793684
1,DENVER CENTENNIAL  GOLDEN   N ANN HTG 99.6% CONDNS DB,  39.74,-105.18,  -7.00,1829.00
2,1,12,21, 0, 1, 0.00,60.00,WinterDesignDay
12,5958703.29626409
130,100116176.927734
2,1,12,21, 0, 2, 0.00,60.00,WinterDesignDay
12,5555557.98520958
130,100549219.598776
2,1,12,21, 0, 3, 0.00,60.00,WinterDesignDay
12,5381188.70818701
130,102442877.739484
2,1,12,21, 0, 4, 0.00,60.00,WinterDesignDay
12,5330998.44269224
130,101510860.598598
2,1,12,21, 0, 5, 0.00,60.00,WinterDesignDay
12,5285634.87449793
130,101594369.715636
2,1,12,21, 0, 6, 0.00,60.00,WinterDesignDay
12,5452156.00241698
130,101566386.654967
2,1,12,21, 0, 7, 0.00,60.00,WinterDesignDay
12,6293538.68116951
130,103617531.96024
2,1,12,21, 0, 8, 0.00,60.00,WinterDesignDay
12,7321435.30492375
130,100730547.55639
2,1,12,21, 0, 9, 0.00,60.00,WinterDesignDay
12,7160605.93271341
130,101066872.708729
2,1,12,21, 0,10, 0.00,60.00,WinterDesignDay
12,6467576.36316005
130,101653865.731027
2,1,12,21, 0,11, 0.00,60.00,WinterDesignDay
12,6518702.82670601
130,104226654.931397
2,1,12,21, 0,12, 0.00,60.00,WinterDesignDay
12,6505704.94538803
130,101881957.022728
2,1,12,21, 0,13, 0.00,60.00,WinterDesignDay
12,6434821.57729502
130,101927867.339934
2,1,12,21, 0,14, 0.00,60.00,WinterDesignDay
12,6424362.13679452
130,101903389.531316
2,1,12,21, 0,15, 0.00,60.00,WinterDesignDay
12,6482558.24607349
130,101838181.606397
2,1,12,21, 0,16, 0.00,60.00,WinterDesignDay
12,6686458.50466265
130,101732427.545713
2,1,12,21, 0,17, 0.00,60.00,WinterDesignDay
12,7669433.37938822
130,101171151.103539
2,1,12,21, 0,18, 0.00,60.00,WinterDesignDay
12,9521864.49617152
130,102355332.733345
2,1,12,21, 0,19, 0.00,60.00,WinterDesignDay
12,10557079.3901951
130,98798660.6940249
2,1,12,21, 0,20, 0.00,60.00,WinterDesignDay
12,10495453.4710176
130,98435368.114082
2,1,12,21, 0,21, 0.00,60.00,WinterDesignDay
12,9919081.02901326
130,98500862.40922
2,1,12,21, 0,22, 0.00,60.00,WinterDesignDay
12,9343564.17963558
130,98695127.4739692
2,1,12,21, 0,23, 0.00,60.00,WinterDesignDay
12,8227211.09339709
130,99292283.6675548
2,1,12,21, 0,24, 0.00,60.00,WinterDesignDay
12,7113126.56327349
130,99968130.4761341
1,DENVER CENTENNIAL  GOLDEN   N ANN HTG WIND 99.6% CONDNS WS=>MCDB,  39.74,-105.18,  -7.00,1829.00
2,1,12,21, 0, 1, 0.00,60.00,WinterDesignDay
12,4001748.57703362
130,49032646.814069
2,1,12,21, 0, 2, 0.00,60.00,WinterDesignDay
12,3597798.95674834
130,49444694.1322776
2,1,12,21, 0, 3, 0.00,60.00,WinterDesignDay
12,3423162.15911617
130,51331369.0265247
2,1,12,21, 0, 4, 0.00,60.00,WinterDesignDay
12,3372946.87391456
130,50398698.7816424
2,1,12,21, 0, 5, 0.00,60.00,WinterDesignDay
12,3327561.69583554
130,50481643.8032594
2,1,12,21, 0, 6, 0.00,60.00,WinterDesignDay
12,3494293.96072444
130,50459172.1740257
2,1,12,21, 0, 7, 0.00,60.00,WinterDesignDay
12,4266407.74076254
130,50702151.0262646
2,1,12,21, 0, 8, 0.00,60.00,WinterDesignDay
12,5365962.40492053
130,49685698.2340457
2,1,12,21, 0, 9, 0.00,60.00,WinterDesignDay
12,5204924.28216637
130,50016574.24922
2,1,12,21, 0,10, 0.00,60.00,WinterDesignDay
12,4510666.51773311
130,50571506.9844207
2,1,12,21, 0,11, 0.00,60.00,WinterDesignDay
12,4491031.3187792
130,51297163.2482531
2,1,12,21, 0,12, 0.00,60.00,WinterDesignDay
12,4548180.96719977
130,50783567.2105592
2,1,12,21, 0,13, 0.00,60.00,WinterDesignDay
12,4477290.29790108
130,50829286.9401368
2,1,12,21, 0,14, 0.00,60.00,WinterDesignDay
12,4466953.40432956
130,50808008.0454616
2,1,12,21, 0,15, 0.00,60.00,WinterDesignDay
12,4525371.66002053
130,50748598.937866
2,1,12,21, 0,16, 0.00,60.00,WinterDesignDay
12,4729636.37933703
130,50652358.6080608
2,1,12,21, 0,17, 0.00,60.00,WinterDesignDay
12,5713689.1364187
130,50119218.7575283
2,1,12,21, 0,18, 0.00,60.00,WinterDesignDay
12,7498394.08283716
130,49535504.6719566
2,1,12,21, 0,19, 0.00,60.00,WinterDesignDay
12,8606220.15031808
130,47874244.4321269
2,1,12,21, 0,20, 0.00,60.00,WinterDesignDay
12,8545442.21343245
130,47533087.2283981
2,1,12,21, 0,21, 0.00,60.00,WinterDesignDay
12,7968539.56327602
130,47584741.1909828
2,1,12,21, 0,22, 0.00,60.00,WinterDesignDay
12,7392111.95912298
130,47755232.2927804
2,1,12,21, 0,23, 0.00,60.00,WinterDesignDay
12,6274178.34354092
130,48311131.0073224
2,1,12,21, 0,24, 0.00,60.00,WinterDesignDay
12,5158257.48296896
130,48939043.011465
1,DENVER CENTENNIAL  GOLDEN   N ANN HUM_N 99.6% CONDNS DP=>MCDB,  39.74,-105.18,  -7.00,1829.00
2,1,12,21, 0, 1, 0.00,60.00,WinterDesignDay
12,5143344.60948128
130,78832393.7004516
2,1,12,21, 0, 2, 0.00,60.00,WinterDesignDay
12,4740024.80759052
130,79260881.5354521
2,1,12,21, 0, 3, 0.00,60.00,WinterDesignDay
12,4565628.61973085
130,81153837.2068876
2,1,12,21, 0, 4, 0.00,60.00,WinterDesignDay
12,4515466.89155643
130,80222564.9923147
2,1,12,21, 0, 5, 0.00,60.00,WinterDesignDay
12,4470126.37422047
130,80306675.8193489
2,1,12,21, 0, 6, 0.00,60.00,WinterDesignDay
12,4636724.71046844
130,80280708.1727088
2,1,12,21, 0, 7, 0.00,60.00,WinterDesignDay
12,5467045.32085949
130,82043093.8573783
2,1,12,21, 0, 8, 0.00,60.00,WinterDesignDay
12,6506627.69704768
130,79461149.4631382
2,1,12,21, 0, 9, 0.00,60.00,WinterDesignDay
12,6345716.41161466
130,79795336.3868637
2,1,12,21, 0,10, 0.00,60.00,WinterDesignDay
12,5652503.01863393
130,80377530.9590508
2,1,12,21, 0,11, 0.00,60.00,WinterDesignDay
12,5692111.52425299
130,82649660.1876683
2,1,12,21, 0,12, 0.00,60.00,WinterDesignDay
12,5690359.15596105
130,80598510.4626449
2,1,12,21, 0,13, 0.00,60.00,WinterDesignDay
12,5619457.34436223
130,80643939.3382653
2,1,12,21, 0,14, 0.00,60.00,WinterDesignDay
12,5609021.80058013
130,80620085.3196216
2,1,12,21, 0,15, 0.00,60.00,WinterDesignDay
12,5667268.14601291
130,80556188.7383175
2,1,12,21, 0,16, 0.00,60.00,WinterDesignDay
12,5871253.33446531
130,80452651.6513755
2,1,12,21, 0,17, 0.00,60.00,WinterDesignDay
12,6854330.41452075
130,79894043.1345215
2,1,12,21, 0,18, 0.00,60.00,WinterDesignDay
12,8696172.15504779
130,80801804.1013676
2,1,12,21, 0,19, 0.00,60.00,WinterDesignDay
12,9743351.01125257
130,77557434.3429118
2,1,12,21, 0,20, 0.00,60.00,WinterDesignDay
12,9681816.86395554
130,77196537.3378764
2,1,12,21, 0,21, 0.00,60.00,WinterDesignDay
12,9105198.6676242
130,77255616.5645195
2,1,12,21, 0,22, 0.00,60.00,WinterDesignDay
12,8529373.48859725
130,77441833.1206502
2,1,12,21, 0,23, 0.00,60.00,WinterDesignDay
12,7412560.61492756
130,78026987.2148224
2,1,12,21, 0,24, 0.00,60.00,WinterDesignDay
12,6298027.45473885
130,78691123.1712211
1,RUN PERIOD 1,  39.74,-105.18,  -7.00,1829.00
2,1, 1, 1, 0, 1, 0.00,60.00,Sunday         
12,4456718.37100356
130,60220766.2517096
2,1, 1, 1, 0, 2, 0.00,60.00,Sunday         
12,3996996.58589486
130,61866260.3700286
2,1, 1, 1, 0, 3, 0.00,60.00,Sunday         
12,3785809.54743768
130,59785855.0973579
2,1, 1, 1, 0, 4, 0.00,60.00,Sunday         
12,3648201.04413956
130,57679147.1073751
2,1, 1, 1, 0, 5, 0.00,60.00,Sunday         
12,3594436.04714735
130,57500250.4581346
2,1, 1, 1, 0, 6, 0.00,60.00,Sunday         
12,3658497.48425402
130,55191285.6146249
2,1, 1, 1, 0, 7, 0.00,60.00,Sunday         
12,4459822.38084157
130,56789032.9999211
2,1, 1, 1, 0, 8, 0.00,60.00,Sunday         
12,5491522.97034071
130,53912403.305586
2,1, 1, 1, 0, 9, 0.00,60.00,Sunday         
12,5163316.63441781
130,49024830.7083248
2,1, 1, 1, 0,10, 0.00,60.00,Sunday         
12,4421460.81997814
130,46873682.5211779
2,1, 1, 1, 0,11, 0.00,60.00,Sunday         
12,4270057.6766812
130,43194745.3840542
2,1, 1, 1, 0,12, 0.00,60.00,Sunday         
12,4293491.3517214
130,41255267.9790444
2,1, 1, 1, 0,13, 0.00,60.00,Sunday         
12,4115034.79357621
130,38604122.2699458
2,1, 1, 1, 0,14, 0.00,60.00,Sunday         
12,4185215.43462149
130,40849638.1432685
2,1, 1, 1, 0,15, 0.00,60.00,Sunday         
12,4335070.24924731
130,43650344.013996
2,1, 1, 1, 0,16, 0.00,60.00,Sunday         
12,4572335.50917045
130,44075410.2442098
2,1, 1, 1, 0,17, 0.00,60.00,Sunday         
12,5622308.01683299
130,45755251.6725767
2,1, 1, 1, 0,18, 0.00,60.00,Sunday         
12,7561858.40300826
130,49593840.0119817
2,1, 1, 1, 0,19, 0.00,60.00,Sunday         
12,8735705.33929825
130,50196579.5691999
2,1, 1, 1, 0,20, 0.00,60.00,Sunday         
12,8969551.54258803
130,57784368.986064
2,1, 1, 1, 0,21, 0.00,60.00,Sunday         
12,8390327.36934033
130,57754258.0436916
2,1, 1, 1, 0,22, 0.00,60.00,Sunday         
12,7888927.353739
130,59573070.4679718
2,1, 1, 1, 0,23, 0.00,60.00,Sunday         
12,6965580.33276199
130,65518326.4685251
2,1, 1, 1, 0,24, 0.00,60.00,Sunday         
12,5881638.5297986
130,67748587.7333851
2,2, 1, 2, 0, 1, 0.00,60.00,Monday         
12,4617833.06117295
130,66617336.9729372
2,2, 1, 2, 0, 2, 0.00,60.00,Monday         
12,4281814.17699643
130,68352013.2945788
2,2, 1, 2, 0, 3, 0.00,60.00,Monday         
12,4142459.63850995
130,69303281.0350668
2,2, 1, 2, 0, 4, 0.00,60.00,Monday         
12,4177686.91512348
130,71620826.6003924
2,2, 1, 2, 0, 5, 0.00,60.00,Monday         
12,4233432.18484611
130,74453531.2121337
2,2, 1, 2, 0, 6, 0.00,60.00,Monday         
12,4595019.15916674
130,80077524.5946573
2,2, 1, 2, 0, 7, 0.00,60.00,Monday         
12,5517149.90309119
130,85513992.267627
2,2, 1, 2, 0, 8, 0.00,60.00,Monday         
12,6566030.18639023
130,84203454.5747931
2,2, 1, 2, 0, 9, 0.00,60.00,Monday         
12,6210432.27012939
130,79753749.4788379
2,2, 1, 2, 0,10, 0.00,60.00,Monday         
12,5282713.56306757
130,74033272.3249354
2,2, 1, 2, 0,11, 0.00,60.00,Monday         
12,5158281.22754859
130,71622896.4268684
2,2, 1, 2, 0,12, 0.00,60.00,Monday         
12,4894767.1627735
130,62308676.4866827
2,2, 1, 2, 0,13, 0.00,60.00,Monday         
12,4621259.87684212
130,56697535.6522467
2,2, 1, 2, 0,14, 0.00,60.00,Monday         
12,4545401.43898512
130,54694058.0231341
2,2, 1, 2, 0,15, 0.00,60.00,Monday         
12,4534344.1679449
130,52612771.1190665
2,2, 1, 2, 0,16, 0.00,60.00,Monday         
12,4847063.84347129
130,55267478.4057456
2,2, 1, 2, 0,17, 0.00,60.00,Monday         
12,5948968.96438318
130,57933212.1089768
2,2, 1, 2, 0,18, 0.00,60.00,Monday         
12,7934503.48044835
130,62942538.5051157
2,2, 1, 2, 0,19, 0.00,60.00,Monday         
12,9186262.07478989
130,65517896.7115051
2,2, 1, 2, 0,20, 0.00,60.00,Monday         
12,9385005.80182773
130,72264852.4858996
2,2, 1, 2, 0,21, 0.00,60.00,Monday         
12,8797784.29869193
130,72020591.3153609
2,2, 1, 2, 0,22, 0.00,60.00,Monday         
12,8270783.44930531
130,73210544.5210717
2,2, 1, 2, 0,23, 0.00,60.00,Monday         
12,7258738.36974662
130,76100429.4334216
2,2, 1, 2, 0,24, 0.00,60.00,Monday         
12,6186349.43292103
130,77321196.417365
2,3, 1, 3, 0, 1, 0.00,60.00,Tuesday        
12,5100755.75787389
130,79224987.9395006
2,3, 1, 3, 0, 2, 0.00,60.00,Tuesday        
12,4761770.89527845
130,80881451.6585917
2,3, 1, 3, 0, 3, 0.00,60.00,Tuesday        
12,4659298.61555644
130,82795109.9508115
2,3, 1, 3, 0, 4, 0.00,60.00,Tuesday        
12,4691696.17797955
130,85038691.3307655
2,3, 1, 3, 0, 5, 0.00,60.00,Tuesday        
12,4638151.74105053
130,85018727.0535055
2,3, 1, 3, 0, 6, 0.00,60.00,Tuesday        
12,4803872.16876711
130,85530870.5546995
2,3, 1, 3, 0, 7, 0.00,60.00,Tuesday        
12,5620902.99789563
130,88226066.4409973
2,3, 1, 3, 0, 8, 0.00,60.00,Tuesday        
12,6752767.4660158
130,89083495.0168536
2,3, 1, 3, 0, 9, 0.00,60.00,Tuesday        
12,6218933.15995298
130,79981697.8775937
2,3, 1, 3, 0,10, 0.00,60.00,Tuesday        
12,5230684.57836845
130,72680860.1926322
2,3, 1, 3, 0,11, 0.00,60.00,Tuesday        
12,5059846.04726314
130,69058422.7090721
2,3, 1, 3, 0,12, 0.00,60.00,Tuesday        
12,4905868.03203643
130,62602741.0931576
2,3, 1, 3, 0,13, 0.00,60.00,Tuesday        
12,4593181.28615575
130,55968238.8505139
2,3, 1, 3, 0,14, 0.00,60.00,Tuesday        
12,4397084.31936614
130,50825633.9293771
2,3, 1, 3, 0,15, 0.00,60.00,Tuesday        
12,4303606.55303759
130,46592517.9004001
2,3, 1, 3, 0,16, 0.00,60.00,Tuesday        
12,4475270.57771325
130,45565027.4096196
2,3, 1, 3, 0,17, 0.00,60.00,Tuesday        
12,5628665.61476739
130,49575043.8339486
2,3, 1, 3, 0,18, 0.00,60.00,Tuesday        
12,7751371.12214576
130,58165630.2257267
2,3, 1, 3, 0,19, 0.00,60.00,Tuesday        
12,9025004.70729006
130,61312835.7847752
2,3, 1, 3, 0,20, 0.00,60.00,Tuesday        
12,9143889.50134489
130,65975726.9244664
2,3, 1, 3, 0,21, 0.00,60.00,Tuesday        
12,8664206.00423309
130,68538548.5389894
2,3, 1, 3, 0,22, 0.00,60.00,Tuesday        
12,8144848.89378111
130,69927557.4753234
2,3, 1, 3, 0,23, 0.00,60.00,Tuesday        
12,7074226.86834561
130,71287632.6071671
2,3, 1, 3, 0,24, 0.00,60.00,Tuesday        
12,5997259.6726118
130,72387951.8744034
2,4, 1, 4, 0, 1, 0.00,60.00,Wednesday      
12,4802021.57099084
130,71428561.8855965
2,4, 1, 4, 0, 2, 0.00,60.00,Wednesday      
12,4433526.00764574
130,72313895.9423653
2,4, 1, 4, 0, 3, 0.00,60.00,Wednesday      
12,4248934.18721408
130,72083571.3844465
2,4, 1, 4, 0, 4, 0.00,60.00,Wednesday      
12,4269599.24337455
130,74020807.6988532
2,4, 1, 4, 0, 5, 0.00,60.00,Wednesday      
12,4141805.94215758
130,72062874.5813029
2,4, 1, 4, 0, 6, 0.00,60.00,Wednesday      
12,4342528.36906091
130,73489647.8075505
2,4, 1, 4, 0, 7, 0.00,60.00,Wednesday      
12,5239869.31149172
130,78283394.8886833
2,4, 1, 4, 0, 8, 0.00,60.00,Wednesday      
12,6249841.30253131
130,75960736.2684382
2,4, 1, 4, 0, 9, 0.00,60.00,Wednesday      
12,5909504.82906906
130,71910434.7065734
2,4, 1, 4, 0,10, 0.00,60.00,Wednesday      
12,4852161.63876109
130,62805673.0361794
2,4, 1, 4, 0,11, 0.00,60.00,Wednesday      
12,4643717.93098671
130,58200925.7766689
2,4, 1, 4, 0,12, 0.00,60.00,Wednesday      
12,4512848.31852551
130,52347725.9083452
2,4, 1, 4, 0,13, 0.00,60.00,Wednesday      
12,4332802.31742678
130,49174997.8030886
2,4, 1, 4, 0,14, 0.00,60.00,Wednesday      
12,4024374.22465465
130,41099686.4186623
2,4, 1, 4, 0,15, 0.00,60.00,Wednesday      
12,3860364.62755217
130,35025083.1810237
2,4, 1, 4, 0,16, 0.00,60.00,Wednesday      
12,3969951.8805348
130,32377030.4910408
2,4, 1, 4, 0,17, 0.00,60.00,Wednesday      
12,5029202.51546472
130,33929748.6940833
2,4, 1, 4, 0,18, 0.00,60.00,Wednesday      
12,7019825.95950584
130,39073111.9886575
2,4, 1, 4, 0,19, 0.00,60.00,Wednesday      
12,8239054.94756984
130,40800979.0088474
2,4, 1, 4, 0,20, 0.00,60.00,Wednesday      
12,8329180.73796615
130,44713694.7934929
2,4, 1, 4, 0,21, 0.00,60.00,Wednesday      
12,7906291.61628914
130,48759000.6362754
2,4, 1, 4, 0,22, 0.00,60.00,Wednesday      
12,7299960.92234798
130,47877236.0767125
2,4, 1, 4, 0,23, 0.00,60.00,Wednesday      
12,6195179.1092208
130,48344886.6129012
2,4, 1, 4, 0,24, 0.00,60.00,Wednesday      
12,5050242.37543432
130,47670032.0190435
2,5, 1, 5, 0, 1, 0.00,60.00,Thursday       
12,3871047.84399741
130,47128384.8483809
2,5, 1, 5, 0, 2, 0.00,60.00,Thursday       
12,3426606.61046496
130,46030495.0461312
2,5, 1, 5, 0, 3, 0.00,60.00,Thursday       
12,3242283.89883657
130,45806838.8099704
2,5, 1, 5, 0, 4, 0.00,60.00,Thursday       
12,3194285.56640903
130,45951626.5405545
2,5, 1, 5, 0, 5, 0.00,60.00,Thursday       
12,3139969.76920948
130,45911902.2682551
2,5, 1, 5, 0, 6, 0.00,60.00,Thursday       
12,3301334.45321737
130,46312228.8945224
2,5, 1, 5, 0, 7, 0.00,60.00,Thursday       
12,4077526.36774392
130,47945676.8746244
2,5, 1, 5, 0, 8, 0.00,60.00,Thursday       
12,5145458.08755148
130,47137689.3620161
2,5, 1, 5, 0, 9, 0.00,60.00,Thursday       
12,4960755.57562535
130,47150485.0886897
2,5, 1, 5, 0,10, 0.00,60.00,Thursday       
12,4210823.21707283
130,46069945.5379873
2,5, 1, 5, 0,11, 0.00,60.00,Thursday       
12,3939161.91624468
130,39814326.5070775
2,5, 1, 5, 0,12, 0.00,60.00,Thursday       
12,3761545.19732376
130,32740144.1945942
2,5, 1, 5, 0,13, 0.00,60.00,Thursday       
12,3465480.61537086
130,26538303.5993067
2,5, 1, 5, 0,14, 0.00,60.00,Thursday       
12,3453551.27283982
130,26202219.8101162
2,5, 1, 5, 0,15, 0.00,60.00,Thursday       
12,3466012.72411379
130,24733796.7577459
2,5, 1, 5, 0,16, 0.00,60.00,Thursday       
12,3550275.51074448
130,21424551.4995325
2,5, 1, 5, 0,17, 0.00,60.00,Thursday       
12,4673122.79429144
130,24637573.8628788
2,5, 1, 5, 0,18, 0.00,60.00,Thursday       
12,6661726.13659158
130,29728793.612244
2,5, 1, 5, 0,19, 0.00,60.00,Thursday       
12,7923773.41906263
130,32575165.4753053
2,5, 1, 5, 0,20, 0.00,60.00,Thursday       
12,8044985.04361521
130,37299853.1618512
2,5, 1, 5, 0,21, 0.00,60.00,Thursday       
12,7542721.12412873
130,39273154.0778949
2,5, 1, 5, 0,22, 0.00,60.00,Thursday       
12,7204807.3259913
130,45397577.8193992
2,5, 1, 5, 0,23, 0.00,60.00,Thursday       
12,6113245.30591646
130,46209595.1376428
2,5, 1, 5, 0,24, 0.00,60.00,Thursday       
12,5029224.80663454
130,47123968.5571748
2,6, 1, 6, 0, 1, 0.00,60.00,Friday         
12,3868995.98896617
130,47076368.405011
2,6, 1, 6, 0, 2, 0.00,60.00,Friday         
12,3422850.61040015
130,45933240.8925608
2,6, 1, 6, 0, 3, 0.00,60.00,Friday         
12,3262138.15808803
130,46325545.3142555
2,6, 1, 6, 0, 4, 0.00,60.00,Friday         
12,3107983.15743852
130,43699175.8237963
2,6, 1, 6, 0, 5, 0.00,60.00,Friday         
12,3183961.90365541
130,47060784.6529199
2,6, 1, 6, 0, 6, 0.00,60.00,Friday         
12,3304233.26470804
130,46389340.1344848
2,6, 1, 6, 0, 7, 0.00,60.00,Friday         
12,4083406.47154243
130,48102690.5066332
2,6, 1, 6, 0, 8, 0.00,60.00,Friday         
12,5165795.88676544
130,47673769.6259322
2,6, 1, 6, 0, 9, 0.00,60.00,Friday         
12,4835449.88283982
130,43885238.272948
2,6, 1, 6, 0,10, 0.00,60.00,Friday         
12,3826335.91542355
130,36038836.3342621
2,6, 1, 6, 0,11, 0.00,60.00,Friday         
12,3459544.48421323
130,27299328.0627233
2,6, 1, 6, 0,12, 0.00,60.00,Friday         
12,3178291.63983235
130,17519171.2961344
2,6, 1, 6, 0,13, 0.00,60.00,Friday         
12,2894443.71577674
130,11635630.2427486
2,6, 1, 6, 0,14, 0.00,60.00,Friday         
12,2817500.76554913
130,9602015.71079239
2,6, 1, 6, 0,15, 0.00,60.00,Friday         
12,2824899.09522322
130,8001088.63055332
2,6, 1, 6, 0,16, 0.00,60.00,Friday         
12,3004841.88227011
130,7189303.07743227
2,6, 1, 6, 0,17, 0.00,60.00,Friday         
12,4220750.04335304
130,12831747.1800599
2,6, 1, 6, 0,18, 0.00,60.00,Friday         
12,6364929.8940055
130,21984642.1868386
2,6, 1, 6, 0,19, 0.00,60.00,Friday         
12,7875158.3757703
130,31310213.2501614
2,6, 1, 6, 0,20, 0.00,60.00,Friday         
12,8095810.66799194
130,38631169.3685719
2,6, 1, 6, 0,21, 0.00,60.00,Friday         
12,7739891.9694647
130,44424561.6819813
2,6, 1, 6, 0,22, 0.00,60.00,Friday         
12,7310519.01928181
130,48161133.0193074
2,6, 1, 6, 0,23, 0.00,60.00,Friday         
12,6351718.96347502
130,52438013.0573991
2,6, 1, 6, 0,24, 0.00,60.00,Friday         
12,5301293.90521111
130,54228462.983921
2,7, 1, 7, 0, 1, 0.00,60.00,Saturday       
12,4230774.44977276
130,55833473.2964772
2,7, 1, 7, 0, 2, 0.00,60.00,Saturday       
12,3897941.44449855
130,57921976.0341722
2,7, 1, 7, 0, 3, 0.00,60.00,Saturday       
12,3771318.26684979
130,59343524.3610188
2,7, 1, 7, 0, 4, 0.00,60.00,Saturday       
12,3632404.93541005
130,57241583.6583932
2,7, 1, 7, 0, 5, 0.00,60.00,Saturday       
12,3603743.98407501
130,57738399.6954821
2,7, 1, 7, 0, 6, 0.00,60.00,Saturday       
12,3695004.8431489
130,56150860.2795243
2,7, 1, 7, 0, 7, 0.00,60.00,Saturday       
12,4365525.84857655
130,54348786.7907782
2,7, 1, 7, 0, 8, 0.00,60.00,Saturday       
12,5429025.20463463
130,52313016.4467158
2,7, 1, 7, 0, 9, 0.00,60.00,Saturday       
12,5015043.01813752
130,45189501.4984455
2,7, 1, 7, 0,10, 0.00,60.00,Saturday       
12,3972841.37272641
130,35196450.0368626
2,7, 1, 7, 0,11, 0.00,60.00,Saturday       
12,3614619.27340816
130,26114766.6389656
2,7, 1, 7, 0,12, 0.00,60.00,Saturday       
12,3343465.69210534
130,16481171.8790569
2,7, 1, 7, 0,13, 0.00,60.00,Saturday       
12,3042469.01816119
130,10627583.0423389
2,7, 1, 7, 0,14, 0.00,60.00,Saturday       
12,2908594.11932029
130,7543769.83117219
2,7, 1, 7, 0,15, 0.00,60.00,Saturday       
12,2898050.84683706
130,6155416.59246139
2,7, 1, 7, 0,16, 0.00,60.00,Saturday       
12,3248402.43372637
130,9531636.05804276
2,7, 1, 7, 0,17, 0.00,60.00,Saturday       
12,4359771.91206457
130,12815393.2138296
2,7, 1, 7, 0,18, 0.00,60.00,Saturday       
12,6538795.5735446
130,22908626.8945151
2,7, 1, 7, 0,19, 0.00,60.00,Saturday       
12,7968176.71977837
130,30186557.651354
2,7, 1, 7, 0,20, 0.00,60.00,Saturday       
12,8242868.51723914
130,38843724.7816625
2,7, 1, 7, 0,21, 0.00,60.00,Saturday       
12,7885043.22577289
130,44592650.428062
2,7, 1, 7, 0,22, 0.00,60.00,Saturday       
12,7421546.36516236
130,47398141.9744314
2,7, 1, 7, 0,23, 0.00,60.00,Saturday       
12,6356192.23395071
130,49632170.9849061
2,7, 1, 7, 0,24, 0.00,60.00,Saturday       
12,5267778.9669108
130,51740237.9854322
2,8, 1, 8, 0, 1, 0.00,60.00,Sunday         
12,4134715.37203344
130,53327456.5316916
2,8, 1, 8, 0, 2, 0.00,60.00,Sunday         