Program Version,EnergyPlus, Version 9.2.0-921312fa1d, YMD=2019.11.06 07:58
1,5,Environment Title[],Latitude[deg],Longitude[deg],Time Zone[],Elevation[m]
2,8,Day of Simulation[],Month[],Day of Month[],DST Indicator[1=yes 0=no],Hour[],StartMinute[],EndMinute[],DayType
3,5,Cumulative Day of Simulation[],Month[],Day of Month[],DST Indicator[1=yes 0=no],DayType  ! When Daily Report Variables Requested
4,2,Cumulative Days of Simulation[],Month[]  ! When Monthly Report Variables Requested
5,1,Cumulative Days of Simulation[] ! When Run Period Report Variables Requested
6,1,Calendar Year of Simulation[] ! When Annual Report Variables Requested
276,9,EMS,central ac supply fan cool disaggregate [J] !Monthly [Value,Min,Day,Hour,Minute,Max,Day,Hour,Minute]
277,11,EMS,central ac supply fan cool disaggregate [J] !RunPeriod [Value,Min,Month,Day,Hour,Minute,Max,Month,Day,Hour,Minute]
278,11,EMS,furnace supply fan heat disaggregate [J] !RunPeriod [Value,Min,Month,Day,Hour,Minute,Max,Month,Day,Hour,Minute]
279,9,EMS,furnace supply fan heat disaggregate [J] !Monthly [Value,Min,Day,Hour,Minute,Max,Day,Hour,Minute]
280,11,EMS,water heater EC adjustment [J] !RunPeriod [Value,Min,Month,Day,Hour,Minute,Max,Month,Day,Hour,Minute]
281,1,LIVING,Zone Mean Air Temperature [C] !Hourly
282,1,VENTED ATTIC,Zone Mean Air Temperature [C] !Hourly
546,11,CENTRAL AC CLG COIL,Cooling Coil Electric Energy [J] !RunPeriod [Value,Min,Month,Day,Hour,Minute,Max,Month,Day,Hour,Minute]
572,11,FURNACE HTG COIL,Heating Coil Gas Energy [J] !RunPeriod [Value,Min,Month,Day,Hour,Minute,Max,Month,Day,Hour,Minute]
837,11,WATER USE CONNECTIONS 1,Water Use Connections Plant Hot Water Energy [J] !RunPeriod [Value,Min,Month,Day,Hour,Minute,Max,Month,Day,Hour,Minute]
874,11,WATER HEATER,Water Heater Heat Loss Energy [J] !RunPeriod [Value,Min,Month,Day,Hour,Minute,Max,Month,Day,Hour,Minute]
889,11,WATER HEATER,Water Heater Electric Energy [J] !RunPeriod [Value,Min,Month,Day,Hour,Minute,Max,Month,Day,Hour,Minute]
927,11,WATER HEATER,Water Heater Off Cycle Parasitic Electric Energy [J] !RunPeriod [Value,Min,Month,Day,Hour,Minute,Max,Month,Day,Hour,Minute]
929,11,WATER HEATER,Water Heater On Cycle Parasitic Electric Energy [J] !RunPeriod [Value,Min,Month,Day,Hour,Minute,Max,Month,Day,Hour,Minute]
1092,11,CENTRAL AC CLG COIL,Cooling Coil Crankcase Heater Electric Energy [J] !RunPeriod [Value,Min,Month,Day,Hour,Minute,Max,Month,Day,Hour,Minute]
End of Data Dictionary
1,RUN PERIOD 1,  39.83,-104.65,  -7.00,1650.00
2,1, 1, 1, 0, 1, 0.00,60.00,Monday
281,20.00513076127269
282,-12.824760097185573
2,1, 1, 1, 0, 2, 0.00,60.00,Monday
281,20.00024379070677
282,-13.593205727889489
2,1, 1, 1, 0, 3, 0.00,60.00,Monday
281,20.000012787408087
282,-13.956157450056392
2,1, 1, 1, 0, 4, 0.00,60.00,Monday
281,20.000000722274604
282,-15.102000346705376
2,1, 1, 1, 0, 5, 0.00,60.00,Monday
281,20.0000000423325
282,-15.198706341029033
2,1, 1, 1, 0, 6, 0.00,60.00,Monday
281,20.000000002455683
282,-14.401016885716473
2,1, 1, 1, 0, 7, 0.00,60.00,Monday
281,20.000000000138706
282,-13.392185815937199
2,1, 1, 1, 0, 8, 0.00,60.00,Monday
281,20.00000000000757
282,-8.916572303539585
2,1, 1, 1, 0, 9, 0.00,60.00,Monday
281,20.00000000000037
282,-6.914423706442352
2,1, 1, 1, 0,10, 0.00,60.00,Monday
281,20.000000000000079
282,-2.79535646649194
2,1, 1, 1, 0,11, 0.00,60.00,Monday
281,19.999999999999948
282,1.1798141738826827
2,1, 1, 1, 0,12, 0.00,60.00,Monday
281,20.00000000000002
282,2.968816802301238
2,1, 1, 1, 0,13, 0.00,60.00,Monday
281,19.999999999999987
282,4.525631510543672
2,1, 1, 1, 0,14, 0.00,60.00,Monday
281,20.000000000000026
282,3.4897117172581537
2,1, 1, 1, 0,15, 0.00,60.00,Monday
281,20.000000000000065
282,4.046328671337859
2,1, 1, 1, 0,16, 0.00,60.00,Monday
281,20.0
282,2.438496695075054
2,1, 1, 1, 0,17, 0.00,60.00,Monday
281,20.000000000000033
282,-0.14677511128021204
2,1, 1, 1, 0,18, 0.00,60.00,Monday
281,20.00000000000002
282,-2.01930271872507
2,1, 1, 1, 0,19, 0.00,60.00,Monday
281,20.000000000000087
282,-4.7943370536903899
2,1, 1, 1, 0,20, 0.00,60.00,Monday
281,20.00000000000002
282,-5.501536382101557
2,1, 1, 1, 0,21, 0.00,60.00,Monday
281,20.00000000000006
282,-5.9830753613799019
2,1, 1, 1, 0,22, 0.00,60.00,Monday
281,20.000000000000204
282,-6.137242210548755
2,1, 1, 1, 0,23, 0.00,60.00,Monday
281,20.000000000000225
282,-6.16647764143987
2,1, 1, 1, 0,24, 0.00,60.00,Monday
281,20.000000000000015
282,-5.0705691351110639
2,2, 1, 2, 0, 1, 0.00,60.00,Tuesday
281,20.00000000000007
282,-5.0445140724963919
2,2, 1, 2, 0, 2, 0.00,60.00,Tuesday
281,20.0000000000001
282,-5.629717598413422
2,2, 1, 2, 0, 3, 0.00,60.00,Tuesday
281,20.00000000000008
282,-5.0553868628269689
2,2, 1, 2, 0, 4, 0.00,60.00,Tuesday
281,19.99999999999995
282,-6.6932827402038719
2,2, 1, 2, 0, 5, 0.00,60.00,Tuesday
281,20.00000000000011
282,-5.697009655346151
2,2, 1, 2, 0, 6, 0.00,60.00,Tuesday
281,20.00000000000001
282,-6.1849366039865549
2,2, 1, 2, 0, 7, 0.00,60.00,Tuesday
281,20.000000000000136
282,-4.649711074969083
2,2, 1, 2, 0, 8, 0.00,60.00,Tuesday
281,20.000000000000119
282,-3.434621669477953
2,2, 1, 2, 0, 9, 0.00,60.00,Tuesday
281,20.000000000000055
282,-2.081742879082753
2,2, 1, 2, 0,10, 0.00,60.00,Tuesday
281,20.000000000000005
282,1.7950779687306347
2,2, 1, 2, 0,11, 0.00,60.00,Tuesday
281,20.00000000000005
282,5.451824958003844
2,2, 1, 2, 0,12, 0.00,60.00,Tuesday
281,20.00000000000002
282,9.025655625914187
2,2, 1, 2, 0,13, 0.00,60.00,Tuesday
281,20.00000000000001
282,9.788512261604117
2,2, 1, 2, 0,14, 0.00,60.00,Tuesday
281,20.000000000000019
282,9.950872888011583
2,2, 1, 2, 0,15, 0.00,60.00,Tuesday
281,20.00156793028104
282,10.44302696854489
2,2, 1, 2, 0,16, 0.00,60.00,Tuesday
281,20.0000049238157
282,8.396465458248605
2,2, 1, 2, 0,17, 0.00,60.00,Tuesday
281,20.000000040469798
282,7.17771137268353
2,2, 1, 2, 0,18, 0.00,60.00,Tuesday
281,20.000000000539548
282,5.258180711227002
2,2, 1, 2, 0,19, 0.00,60.00,Tuesday
281,20.000000000012454
282,1.4616190670308916
2,2, 1, 2, 0,20, 0.00,60.00,Tuesday
281,20.000000000000335
282,0.19111901622976705
2,2, 1, 2, 0,21, 0.00,60.00,Tuesday
281,20.000000000000033
282,-1.5480944813482667
2,2, 1, 2, 0,22, 0.00,60.00,Tuesday
281,20.0
282,-1.1345951195696738
2,2, 1, 2, 0,23, 0.00,60.00,Tuesday
281,20.000000000000126
282,-1.582564272849106
2,2, 1, 2, 0,24, 0.00,60.00,Tuesday
281,20.000000000000094
282,-0.32914181198526007
2,3, 1, 3, 0, 1, 0.00,60.00,Wednesday
281,20.00000000000019
282,-0.7477500077493837
2,3, 1, 3, 0, 2, 0.00,60.00,Wednesday
281,19.999999999999955
282,-0.7022135837685
2,3, 1, 3, 0, 3, 0.00,60.00,Wednesday
281,20.00000000000001
282,-1.1636790927460815
2,3, 1, 3, 0, 4, 0.00,60.00,Wednesday
281,20.000000000000126
282,-1.7441576241105555
2,3, 1, 3, 0, 5, 0.00,60.00,Wednesday
281,20.000000000000126
282,-1.751533947829781
2,3, 1, 3, 0, 6, 0.00,60.00,Wednesday
281,20.000000000000097
282,-1.1625191549231906
2,3, 1, 3, 0, 7, 0.00,60.00,Wednesday
281,20.000000000000119
282,-1.1628144972786694
2,3, 1, 3, 0, 8, 0.00,60.00,Wednesday
281,20.00000000000011
282,-0.663991846956421
2,3, 1, 3, 0, 9, 0.00,60.00,Wednesday
281,20.000000000000087
282,3.067501643219497
2,3, 1, 3, 0,10, 0.00,60.00,Wednesday
281,20.000000000000019
282,5.4287444653956868
2,3, 1, 3, 0,11, 0.00,60.00,Wednesday
281,19.99999999999995
282,6.336301500551766
2,3, 1, 3, 0,12, 0.00,60.00,Wednesday
281,20.00000000000003
282,6.810690478600156
2,3, 1, 3, 0,13, 0.00,60.00,Wednesday
281,20.00000000000004
282,5.787125721222135
2,3, 1, 3, 0,14, 0.00,60.00,Wednesday
281,20.00000000000002
282,4.772396589205482
2,3, 1, 3, 0,15, 0.00,60.00,Wednesday
281,20.000000000000008
282,2.608931472596728
2,3, 1, 3, 0,16, 0.00,60.00,Wednesday
281,20.0
282,0.042292850672263657
2,3, 1, 3, 0,17, 0.00,60.00,Wednesday
281,20.0
282,-2.5741017935006198
2,3, 1, 3, 0,18, 0.00,60.00,Wednesday
281,20.00000000000001
282,-5.2226874858591929
2,3, 1, 3, 0,19, 0.00,60.00,Wednesday
281,19.9999999999999
282,-5.3058997175775819
2,3, 1, 3, 0,20, 0.00,60.00,Wednesday
281,20.00000000000004
282,-6.319542023267106
2,3, 1, 3, 0,21, 0.00,60.00,Wednesday
281,20.000000000000104
282,-8.25335436200483
2,3, 1, 3, 0,22, 0.00,60.00,Wednesday
281,20.000000000000246
282,-9.651420541958919
2,3, 1, 3, 0,23, 0.00,60.00,Wednesday
281,19.99999999999988
282,-11.104125319083064
2,3, 1, 3, 0,24, 0.00,60.00,Wednesday
281,20.00000000000013
282,-12.174626253273364
2,4, 1, 4, 0, 1, 0.00,60.00,Thursday
281,20.000000000000314
282,-12.534335889328832
2,4, 1, 4, 0, 2, 0.00,60.00,Thursday
281,19.99999999999989
282,-14.023889605831064
2,4, 1, 4, 0, 3, 0.00,60.00,Thursday
281,20.000000000000005
282,-15.851933657202084
2,4, 1, 4, 0, 4, 0.00,60.00,Thursday
281,20.0
282,-14.7581775871598
2,4, 1, 4, 0, 5, 0.00,60.00,Thursday
281,19.999999999999859
282,-14.422730098521197
2,4, 1, 4, 0, 6, 0.00,60.00,Thursday
281,20.000000000000285
282,-13.70767855448464
2,4, 1, 4, 0, 7, 0.00,60.00,Thursday
281,19.99999999999989
282,-14.615382310639149
2,4, 1, 4, 0, 8, 0.00,60.00,Thursday
281,20.00000000000001
282,-13.101502082839622
2,4, 1, 4, 0, 9, 0.00,60.00,Thursday
281,20.000000000000136
282,-10.238548909659686
2,4, 1, 4, 0,10, 0.00,60.00,Thursday
281,19.99999999999991
282,-2.1416985563839798
2,4, 1, 4, 0,11, 0.00,60.00,Thursday
281,20.000000000000044
282,2.2728990896603977
2,4, 1, 4, 0,12, 0.00,60.00,Thursday
281,20.00000000000002
282,2.8639549740463958
2,4, 1, 4, 0,13, 0.00,60.00,Thursday
281,20.000000000000065
282,7.786823815020882
2,4, 1, 4, 0,14, 0.00,60.00,Thursday
281,20.00000000000004
282,9.483083650230612
2,4, 1, 4, 0,15, 0.00,60.00,Thursday
281,20.000000000000058
282,10.965222274638175
2,4, 1, 4, 0,16, 0.00,60.00,Thursday
281,20.00000000000006
282,9.998867446607417
2,4, 1, 4, 0,17, 0.00,60.00,Thursday
281,20.000000000000015
282,8.153775573327803
2,4, 1, 4, 0,18, 0.00,60.00,Thursday
281,20.0
282,7.222810209162755
2,4, 1, 4, 0,19, 0.00,60.00,Thursday
281,20.0
282,6.12287643133143
2,4, 1, 4, 0,20, 0.00,60.00,Thursday
281,20.000000000000047
282,7.023041813413024
2,4, 1, 4, 0,21, 0.00,60.00,Thursday
281,20.00000000000005
282,6.049354956655538
2,4, 1, 4, 0,22, 0.00,60.00,Thursday
281,20.000000000000044
282,5.515096475069678
2,4, 1, 4, 0,23, 0.00,60.00,Thursday
281,20.000000000000058
282,4.918709723901521
2,4, 1, 4, 0,24, 0.00,60.00,Thursday
281,20.000000000000058
282,9.779968436370015
2,5, 1, 5, 0, 1, 0.00,60.00,Friday
281,19.999999999999934
282,5.159526517900421
2,5, 1, 5, 0, 2, 0.00,60.00,Friday
281,20.000000000000008
282,10.314550961024697
2,5, 1, 5, 0, 3, 0.00,60.00,Friday
281,20.00000000000003
282,10.915150239463378
2,5, 1, 5, 0, 4, 0.00,60.00,Friday
281,20.00000000000006
282,9.328825440879065
2,5, 1, 5, 0, 5, 0.00,60.00,Friday
281,20.000000000000055
282,9.262114056925866
2,5, 1, 5, 0, 6, 0.00,60.00,Friday
281,20.00000000000006
282,9.272849856765222
2,5, 1, 5, 0, 7, 0.00,60.00,Friday
281,20.000000000000005
282,5.127765827600062
2,5, 1, 5, 0, 8, 0.00,60.00,Friday
281,20.000000000000008
282,9.116411793272827
2,5, 1, 5, 0, 9, 0.00,60.00,Friday
281,20.00000000000002
282,8.874805825493788
2,5, 1, 5, 0,10, 0.00,60.00,Friday
281,20.066819446694479
282,12.670858491704547
2,5, 1, 5, 0,11, 0.00,60.00,Friday
281,20.03332256495141
282,12.902355697759385
2,5, 1, 5, 0,12, 0.00,60.00,Friday
281,20.493209134977727
282,15.146120279590177
2,5, 1, 5, 0,13, 0.00,60.00,Friday
281,20.77555722447982
282,14.855282655282446
2,5, 1, 5, 0,14, 0.00,60.00,Friday
281,20.933608094914424
282,13.692360111851248
2,5, 1, 5, 0,15, 0.00,60.00,Friday
281,20.988108347887125
282,11.259761429384306
2,5, 1, 5, 0,16, 0.00,60.00,Friday
281,20.99765378705477
282,9.57722708713222
2,5, 1, 5, 0,17, 0.00,60.00,Friday
281,20.76011210885851
282,6.545685065267579
2,5, 1, 5, 0,18, 0.00,60.00,Friday
281,20.56473896145316
282,5.971950584631583
2,5, 1, 5, 0,19, 0.00,60.00,Friday
281,20.370890789112577
282,4.0924526645932099
2,5, 1, 5, 0,20, 0.00,60.00,Friday
281,20.15848615616859
282,3.377310440321638
2,5, 1, 5, 0,21, 0.00,60.00,Friday
281,20.00111222667666
282,1.7901612728724928
2,5, 1, 5, 0,22, 0.00,60.00,Friday
281,20.00001802667643
282,0.21639847664434695
2,5, 1, 5, 0,23, 0.00,60.00,Friday
281,20.000000421321347
282,0.5565473297670713
2,5, 1, 5, 0,24, 0.00,60.00,Friday
281,20.000000013773684
282,-0.03622000696769003
2,6, 1, 6, 0, 1, 0.00,60.00,Saturday
281,20.000000000490507
282,-0.053743319019847159
2,6, 1, 6, 0, 2, 0.00,60.00,Saturday
281,20.000000000018
282,0.9778209724920729
2,6, 1, 6, 0, 3, 0.00,60.00,Saturday
281,20.00000000000077
282,0.534360859596219
2,6, 1, 6, 0, 4, 0.00,60.00,Saturday
281,20.000000000000079
282,-0.03300449939744184
2,6, 1, 6, 0, 5, 0.00,60.00,Saturday
281,20.00000000000006
282,-0.6652433688944897
2,6, 1, 6, 0, 6, 0.00,60.00,Saturday
281,19.999999999999905
282,-0.16057797373039504
2,6, 1, 6, 0, 7, 0.00,60.00,Saturday
281,20.000000000000058
282,-0.6787215923467858
2,6, 1, 6, 0, 8, 0.00,60.00,Saturday
281,20.0000000000001
282,-0.6653193993077481
2,6, 1, 6, 0, 9, 0.00,60.00,Saturday
281,19.999999999999966
282,-0.5980267461554674
2,6, 1, 6, 0,10, 0.00,60.00,Saturday
281,20.000000000000008
282,0.11039775267749223
2,6, 1, 6, 0,11, 0.00,60.00,Saturday
281,20.000000000000037
282,0.9023535168748099
2,6, 1, 6, 0,12, 0.00,60.00,Saturday
281,20.000000000000019
282,1.6921615776763968
2,6, 1, 6, 0,13, 0.00,60.00,Saturday
281,19.999999999999998
282,1.9823766718453713
2,6, 1, 6, 0,14, 0.00,60.00,Saturday
281,19.99999999999999
282,1.437143628852165
2,6, 1, 6, 0,15, 0.00,60.00,Saturday
281,20.00000000000002
282,1.8961746889882865
2,6, 1, 6, 0,16, 0.00,60.00,Saturday
281,19.99999999999999
282,0.8275639093092102
2,6, 1, 6, 0,17, 0.00,60.00,Saturday
281,20.00000000000003
282,-0.44439690942746409
2,6, 1, 6, 0,18, 0.00,60.00,Saturday
281,20.00000000000003
282,-1.5464269747498436
2,6, 1, 6, 0,19, 0.00,60.00,Saturday
281,20.000000000000055
282,-3.1424994546964348
2,6, 1, 6, 0,20, 0.00,60.00,Saturday
281,20.000000000000033
282,-4.314383754482909
2,6, 1, 6, 0,21, 0.00,60.00,Saturday
281,20.000000000000175
282,-5.774389412875415
2,6, 1, 6, 0,22, 0.00,60.00,Saturday
281,19.999999999999998
282,-7.582882446674144
2,6, 1, 6, 0,23, 0.00,60.00,Saturday
281,20.000000000000108
282,-7.697722166621836
2,6, 1, 6, 0,24, 0.00,60.00,Saturday
281,20.000000000000136
282,-8.778346858310738
2,7, 1, 7, 0, 1, 0.00,60.00,Sunday
281,20.000000000000033
282,-8.864595548585099
2,7, 1, 7, 0, 2, 0.00,60.00,Sunday
281,20.000000000000015
282,-8.32269937633093
2,7, 1, 7, 0, 3, 0.00,60.00,Sunday
281,19.999999999999998
282,-10.468324447292629
2,7, 1, 7, 0, 4, 0.00,60.00,Sunday
281,19.999999999999849
282,-11.839954862078356
2,7, 1, 7, 0, 5, 0.00,60.00,Sunday
281,20.0
282,-12.065377104251802
2,7, 1, 7, 0, 6, 0.00,60.00,Sunday
281,19.999999999999987
282,-12.74299111089639
2,7, 1, 7, 0, 7, 0.00,60.00,Sunday
281,19.999999999999699
282,-12.782511450179627
2,7, 1, 7, 0, 8, 0.00,60.00,Sunday
281,20.000000000000108
282,-3.534020379064414
2,7, 1, 7, 0, 9, 0.00,60.00,Sunday
281,19.999999999999969
282,-1.133461466988715
2,7, 1, 7, 0,10, 0.00,60.00,Sunday
281,19.999999999999998
282,0.23908469422988394
2,7, 1, 7, 0,11, 0.00,60.00,Sunday
281,20.000000000000197
282,2.1835467821630067
2,7, 1, 7, 0,12, 0.00,60.00,Sunday
281,20.000000000000186
282,4.589468148400212
2,7, 1, 7, 0,13, 0.00,60.00,Sunday
281,19.999999999999969
282,5.432754876634144
2,7, 1, 7, 0,14, 0.00,60.00,Sunday
281,20.000000000000165
282,5.040758858387045
2,7, 1, 7, 0,15, 0.00,60.00,Sunday
281,19.999999999999994
282,5.01314214904739
2,7, 1, 7, 0,16, 0.00,60.00,Sunday
281,20.00000000000006
282,4.471952172320466
2,7, 1, 7, 0,17, 0.00,60.00,Sunday
281,20.00000000000003
282,4.956743510275501
2,7, 1, 7, 0,18, 0.00,60.00,Sunday
281,19.99999999999994
282,5.53003776227951
2,7, 1, 7, 0,19, 0.00,60.00,Sunday
281,20.00000000000012
282,4.947688181189263
2,7, 1, 7, 0,20, 0.00,60.00,Sunday
281,20.000000000000104
282,4.365255513880719
2,7, 1, 7, 0,21, 0.00,60.00,Sunday
281,19.999999999999955
282,2.239282698220598
2,7, 1, 7, 0,22, 0.00,60.00,Sunday
281,20.00000000000008
282,-0.4257123740881832
2,7, 1, 7, 0,23, 0.00,60.00,Sunday
281,20.00000000000009
282,-0.013555493139491925
2,7, 1, 7, 0,24, 0.00,60.00,Sunday
281,20.0
282,1.5610665980395416
2,8, 1, 8, 0, 1, 0.00,60.00,Monday
281,20.00000000000005
282,1.6168589159521217
2,8, 1, 8, 0, 2, 0.00,60.00,Monday
281,20.00000000000004
282,1.065283924575764
2,8, 1, 8, 0, 3, 0.00,60.00,Monday
281,20.000000000000158
282,-0.5632739283669108
2,8, 1, 8, 0, 4, 0.00,60.00,Monday
281,20.000000000000005
282,-1.6790517898607998
2,8, 1, 8, 0, 5, 0.00,60.00,Monday
281,20.000000000000008
282,-3.247456497573337
2,8, 1, 8, 0, 6, 0.00,60.00,Monday
281,19.999999999999888
282,-3.281030624665766
2,8, 1, 8, 0, 7, 0.00,60.00,Monday
281,19.999999999999923
282,-4.363068290986942
2,8, 1, 8, 0, 8, 0.00,60.00,Monday
281,19.999999999999955
282,-2.908311591785975
2,8, 1, 8, 0, 9, 0.00,60.00,Monday
281,20.000000000000087
282,2.0189226479132587
2,8, 1, 8, 0,10, 0.00,60.00,Monday
281,20.00000000000005
282,4.860530516197759
2,8, 1, 8, 0,11, 0.00,60.00,Monday
281,20.00000000000001
282,7.159564712797997
2,8, 1, 8, 0,12, 0.00,60.00,Monday
281,20.000000000000033
282,7.877113435828317
2,8, 1, 8, 0,13, 0.00,60.00,Monday
281,20.0
282,10.662890563379243
2,8, 1, 8, 0,14, 0.00,60.00,Monday
281,20.21918506651615
282,10.855294032816437
2,8, 1, 8, 0,15, 0.00,60.00,Monday
281,20.360584665046035
282,8.29375324922259
2,8, 1, 8, 0,16, 0.00,60.00,Monday
281,20.506698282906478
282,7.565042175507694
2,8, 1, 8, 0,17, 0.00,60.00,Monday
281,20.257837538450909
282,5.015327623636013
2,8, 1, 8, 0,18, 0.00,60.00,Monday
281,20.00194157135778
282,1.2110398115176005
2,8, 1, 8, 0,19, 0.00,60.00,Monday
281,20.000037539474648
282,-0.3655758120067905
2,8, 1, 8, 0,20, 0.00,60.00,Monday
281,20.000000966409954
282,-1.5775769091209953
2,8, 1, 8, 0,21, 0.00,60.00,Monday
281,20.00000002634201
282,-1.0888140485096969
2,8, 1, 8, 0,22, 0.00,60.00,Monday
281,20.000000000987943
282,-2.1559933377494286
2,8, 1, 8, 0,23, 0.00,60.00,Monday
281,20.00000000003516
282,-1.7203802937517512
2,8, 1, 8, 0,24, 0.00,60.00,Monday
281,20.000000000001614
282,-2.7796031915911167
2,9, 1, 9, 0, 1, 0.00,60.00,Tuesday
281,20.000000000000147
282,-3.2923954102362047
2,9, 1, 9, 0, 2, 0.00,60.00,Tuesday
281,20.000000000000033
282,-3.3179428311113057
2,9, 1, 9, 0, 3, 0.00,60.00,Tuesday
281,20.000000000000005
282,-3.3339794280560208
2,9, 1, 9, 0, 4, 0.00,60.00,Tuesday
281,20.0
282,-3.3425833297612206
2,9, 1, 9, 0, 5, 0.00,60.00,Tuesday
281,20.000000000000119
282,-3.9295579599155876
2,9, 1, 9, 0, 6, 0.00,60.00,Tuesday
281,20.000000000000037
282,-3.377929416897292
2,9, 1, 9, 0, 7, 0.00,60.00,Tuesday
281,19.9999999999999
282,-5.147484844907262
2,9, 1, 9, 0, 8, 0.00,60.00,Tuesday
281,20.0
282,-1.6215875971950398
2,9, 1, 9, 0, 9, 0.00,60.00,Tuesday
281,20.000000000000044
282,0.26746508010784056
2,9, 1, 9, 0,10, 0.00,60.00,Tuesday
281,20.000000000000033
282,2.69568079712414
2,9, 1, 9, 0,11, 0.00,60.00,Tuesday
281,20.000000000000044
282,3.9571784326656425
2,9, 1, 9, 0,12, 0.00,60.00,Tuesday
281,20.000000000000026
282,3.5776738005730506
2,9, 1, 9, 0,13, 0.00,60.00,Tuesday
281,20.000000000000033
282,3.619323080994819
2,9, 1, 9, 0,14, 0.00,60.00,Tuesday
281,20.0
282,4.1960637729629399
2,9, 1, 9, 0,15, 0.00,60.00,Tuesday
281,20.000000000000005
282,4.677474029007872
2,9, 1, 9, 0,16, 0.00,60.00,Tuesday
281,20.01700936553609
282,4.236596997661876
2,9, 1, 9, 0,17, 0.00,60.00,Tuesday
281,20.000138291226514
282,3.112496350863289
2,9, 1, 9, 0,18, 0.00,60.00,Tuesday
281,20.00000244265932
282,1.3375111663452549
2,9, 1, 9, 0,19, 0.00,60.00,Tuesday
281,20.000000054337297
282,0.11863531128298143
2,9, 1, 9, 0,20, 0.00,60.00,Tuesday
281,20.00000000138619
282,0.582406862028107
2,9, 1, 9, 0,21, 0.00,60.00,Tuesday
281,20.000000000047966
282,-1.6290894503993688
2,9, 1, 9, 0,22, 0.00,60.00,Tuesday
281,20.000000000001856
282,-1.702464378457219
2,9, 1, 9, 0,23, 0.00,60.00,Tuesday
281,20.000000000000168
282,-2.7707081047572159
2,9, 1, 9, 0,24, 0.00,60.00,Tuesday
281,20.000000000000058
282,-4.344293695659959
2,10, 1,10, 0, 1, 0.00,60.00,Wednesday
281,20.000000000000193
282,-4.397589758399786
2,10, 1,10, 0, 2, 0.00,60.00,Wednesday
281,20.000000000000047
282,-4.995246085040633
2,10, 1,10, 0, 3, 0.00,60.00,Wednesday
281,20.000000000000044
282,-5.037138745393542
2,10, 1,10, 0, 4, 0.00,60.00,Wednesday
281,20.000000000000005
282,-5.616915955190276
2,10, 1,10, 0, 5, 0.00,60.00,Wednesday
281,19.999999999999994
282,-6.112376713839795
2,10, 1,10, 0, 6, 0.00,60.00,Wednesday
281,20.00000000000027
282,-6.7053734842451739
2,10, 1,10, 0, 7, 0.00,60.00,Wednesday
281,20.00000000000011
282,-5.729065240584347
2,10, 1,10, 0, 8, 0.00,60.00,Wednesday
281,19.99999999999999
282,-5.085921013048423
2,10, 1,10, 0, 9, 0.00,60.00,Wednesday
281,19.999999999999998
282,-1.8318398728590709
2,10, 1,10, 0,10, 0.00,60.00,Wednesday
281,20.000000000000069
282,1.5862753471090905
2,10, 1,10, 0,11, 0.00,60.00,Wednesday
281,19.999999999999966
282,4.373937720673584
2,10, 1,10, 0,12, 0.00,60.00,Wednesday
281,19.999999999999987
282,6.24813594535047
2,10, 1,10, 0,13, 0.00,60.00,Wednesday
281,20.0
282,8.23688820397229
2,10, 1,10, 0,14, 0.00,60.00,Wednesday
281,20.076580735137929
282,8.385393802062519
2,10, 1,10, 0,15, 0.00,60.00,Wednesday
281,20.2955033268088
282,12.80246905751219
2,10, 1,10, 0,16, 0.00,60.00,Wednesday
281,20.41490323105346
282,7.079309764094832
2,10, 1,10, 0,17, 0.00,60.00,Wednesday
281,20.195090993908896
282,4.581401489188864
2,10, 1,10, 0,18, 0.00,60.00,Wednesday
281,20.001540929519544
282,1.4279408668954959
2,10, 1,10, 0,19, 0.00,60.00,Wednesday
281,20.000026613343836
282,-0.7326681757251633
2,10, 1,10, 0,20, 0.00,60.00,Wednesday
281,20.00000054495226
282,-2.0003997269732536
2,10, 1,10, 0,21, 0.00,60.00,Wednesday
281,20.000000014351419
282,-1.1372082798231489
2,10, 1,10, 0,22, 0.00,60.00,Wednesday
281,20.00000000056814
282,-3.2411413081823774
2,10, 1,10, 0,23, 0.00,60.00,Wednesday
281,20.000000000023755
282,-4.325430456398235
2,10, 1,10, 0,24, 0.00,60.00,Wednesday
281,20.000000000001287
282,-4.983598251363198
2,11, 1,11, 0, 1, 0.00,60.00,Thursday
281,20.000000000000179
282,-5.582234480147996
2,11, 1,11, 0, 2, 0.00,60.00,Thursday
281,20.000000000000026
282,-6.092655456311353
2,11, 1,11, 0, 3, 0.00,60.00,Thursday
281,20.00000000000012
282,-6.1348631377133169
2,11, 1,11, 0, 4, 0.00,60.00,Thursday
281,20.00000000000017
282,-5.6660955024107919
2,11, 1,11, 0, 5, 0.00,60.00,Thursday
281,19.999999999999944
282,-5.07211105385243
2,11, 1,11, 0, 6, 0.00,60.00,Thursday
281,19.99999999999997
282,-4.009318009442694
2,11, 1,11, 0, 7, 0.00,60.00,Thursday
281,20.00000000000007
282,-3.9870044120842809
2,11, 1,11, 0, 8, 0.00,60.00,Thursday
281,19.99999999999993
282,-3.3854787214423927
2,11, 1,11, 0, 9, 0.00,60.00,Thursday
281,20.000000000000207
282,-1.7746801970637903
2,11, 1,11, 0,10, 0.00,60.00,Thursday
281,20.00000000000004
282,1.0212395378536199
2,11, 1,11, 0,11, 0.00,60.00,Thursday
281,20.000000000000008
282,6.942691495807023
2,11, 1,11, 0,12, 0.00,60.00,Thursday
281,20.0
282,8.162525129206369
2,11, 1,11, 0,13, 0.00,60.00,Thursday
281,19.999999999999994
282,10.720757614715874
2,11, 1,11, 0,14, 0.00,60.00,Thursday
281,20.07062936218175
282,11.827677830527732
2,11, 1,11, 0,15, 0.00,60.00,Thursday
281,20.043463662499037
282,12.301964306864735
2,11, 1,11, 0,16, 0.00,60.00,Thursday
281,20.000150711003838
282,10.240457551499763
2,11, 1,11, 0,17, 0.00,60.00,Thursday
281,20.000001174694629
282,8.534657916767629
2,11, 1,11, 0,18, 0.00,60.00,Thursday
281,20.000000009873508
282,7.910828049011707
2,11, 1,11, 0,19, 0.00,60.00,Thursday
281,20.000000000081028
282,7.245904972865468
2,11, 1,11, 0,20, 0.00,60.00,Thursday
281,20.0000000000012
282,5.651502713673886
2,11, 1,11, 0,21, 0.00,60.00,Thursday
281,20.000000000000069
282,4.443108389458692
2,11, 1,11, 0,22, 0.00,60.00,Thursday
281,20.000000000000037
282,6.001567956682017
2,11, 1,11, 0,23, 0.00,60.00,Thursday
281,19.999999999999966
282,4.42731251596972
2,11, 1,11, 0,24, 0.00,60.00,Thursday
281,20.00000000000012
282,3.8981228102598
2,12, 1,12, 0, 1, 0.00,60.00,Friday
281,20.000000000000044
282,2.8379693469213964
2,12, 1,12, 0, 2, 0.00,60.00,Friday
281,19.999999999999959
282,0.1650532526985547
2,12, 1,12, 0, 3, 0.00,60.00,Friday
281,20.00000000000009
282,-0.9375689397678239
2,12, 1,12, 0, 4, 0.00,60.00,Friday
281,19.999999999999987
282,-3.1342720958352636
2,12, 1,12, 0, 5, 0.00,60.00,Friday
281,20.000000000000136
282,-4.7867309779435189
2,12, 1,12, 0, 6, 0.00,60.00,Friday
281,20.00000000000009
282,-5.481354160685582
2,12, 1,12, 0, 7, 0.00,60.00,Friday
281,20.000000000000129
282,-6.018651156798628
2,12, 1,12, 0, 8, 0.00,60.00,Friday
281,19.9999999999999
282,-4.4658989783217779
2,12, 1,12, 0, 9, 0.00,60.00,Friday
281,19.999999999999916
282,-0.8216318604809967
2,12, 1,12, 0,10, 0.00,60.00,Friday
281,20.000000000000015
282,1.9075538596773849
2,12, 1,12, 0,11, 0.00,60.00,Friday
281,20.00000000000009
282,5.618459954613297
2,12, 1,12, 0,12, 0.00,60.00,Friday
281,20.000000000000005
282,7.245268036384074
2,12, 1,12, 0,13, 0.00,60.00,Friday
281,20.000000000000033
282,7.73374241231403
2,12, 1,12, 0,14, 0.00,60.00,Friday
281,20.000000000000005
282,8.849323098351814
2,12, 1,12, 0,15, 0.00,60.00,Friday
281,20.00000000000001
282,8.309618300514702
2,12, 1,12, 0,16, 0.00,60.00,Friday
281,20.000000000000065
282,8.289875760648924
2,12, 1,12, 0,17, 0.00,60.00,Friday
281,20.00000000000008
282,4.5039580356310549
2,12, 1,12, 0,18, 0.00,60.00,Friday
281,20.000000000000087
282,2.3787006865240158
2,12, 1,12, 0,19, 0.00,60.00,Friday
281,19.999999999999994
282,2.249094417296604
2,12, 1,12, 0,20, 0.00,60.00,Friday
281,19.999999999999976
282,2.207032920296111
2,12, 1,12, 0,21, 0.00,60.00,Friday
281,20.000000000000058
282,-0.8624497965386635
2,12, 1,12, 0,22, 0.00,60.00,Friday
281,20.000000000000087
282,-2.0702329269707158
2,12, 1,12, 0,23, 0.00,60.00,Friday
281,20.000000000000097
282,-1.7096407646427843
2,12, 1,12, 0,24, 0.00,60.00,Friday
281,20.000000000000058
282,-1.7389531919533379
2,13, 1,13, 0, 1, 0.00,60.00,Saturday
281,20.000000000000104
282,0.42072840372235179
2,13, 1,13, 0, 2, 0.00,60.00,Saturday
281,20.000000000000019
282,2.9740729679020778
2,13, 1,13, 0, 3, 0.00,60.00,Saturday
281,20.0
282,2.664887772975284
2,13, 1,13, 0, 4, 0.00,60.00,Saturday
281,20.00000000000009
282,2.6088728799567186
2,13, 1,13, 0, 5, 0.00,60.00,Saturday
281,20.000000000000186
282,3.026349494297601
2,13, 1,13, 0, 6, 0.00,60.00,Saturday
281,20.00000000000011
282,2.643336610369063
2,13, 1,13, 0, 7, 0.00,60.00,Saturday
281,20.0000000000001
282,2.1087047631565287
2,13, 1,13, 0, 8, 0.00,60.00,Saturday
281,20.000000000000033
282,3.193174663537213
2,13, 1,13, 0, 9, 0.00,60.00,Saturday
281,20.00000000000006
282,5.4469053472795629
2,13, 1,13, 0,10, 0.00,60.00,Saturday
281,20.000000000000019
282,7.7296386279825699
2,13, 1,13, 0,11, 0.00,60.00,Saturday
281,20.000000000000005
282,9.509732427604045
2,13, 1,13, 0,12, 0.00,60.00,Saturday
281,20.21091145563434
282,10.053872429775572
2,13, 1,13, 0,13, 0.00,60.00,Saturday
281,20.49563102250305
282,11.500732646581835
2,13, 1,13, 0,14, 0.00,60.00,Saturday
281,20.614251287430308
282,11.380109834621507
2,13, 1,13, 0,15, 0.00,60.00,Saturday
281,20.847579396593088
282,15.809915761789352
2,13, 1,13, 0,16, 0.00,60.00,Saturday
281,21.01311457074347
282,15.11615762050067
2,13, 1,13, 0,17, 0.00,60.00,Saturday
281,20.907236335353308
282,8.984538245045166
2,13, 1,13, 0,18, 0.00,60.00,Saturday
281,20.694945441340435
282,7.726782563992514
2,13, 1,13, 0,19, 0.00,60.00,Saturday
281,20.537660240834368
282,6.850067660545471
2,13, 1,13, 0,20, 0.00,60.00,Saturday
281,20.477030403745557
282,6.79078479825194
2,13, 1,13, 0,21, 0.00,60.00,Saturday
281,20.318290992979436
282,6.056862750508656
2,13, 1,13, 0,22, 0.00,60.00,Saturday
281,20.000923759717943
282,3.418562585400338
2,13, 1,13, 0,23, 0.00,60.00,Saturday
281,20.00001583051413
282,1.8352110762911285
2,13, 1,13, 0,24, 0.00,60.00,Saturday
281,20.000000359494164
282,2.751342272003699
2,14, 1,14, 0, 1, 0.00,60.00,Sunday
281,20.000000008995746
282,5.453314451591825
2,14, 1,14, 0, 2, 0.00,60.00,Sunday
281,20.000000000202016
282,6.41910632956964
2,14, 1,14, 0, 3, 0.00,60.00,Sunday
281,20.00000000000512
282,7.052301639623738
2,14, 1,14, 0, 4, 0.00,60.00,Sunday
281,20.000000000000119
282,6.6144919033558529
2,14, 1,14, 0, 5, 0.00,60.00,Sunday
281,19.999999999999994
282,6.6170502072208869
2,14, 1,14, 0, 6, 0.00,60.00,Sunday
281,19.99999999999994
282,6.6020200361175569
2,14, 1,14, 0, 7, 0.00,60.00,Sunday
281,19.99999999999997
282,6.630245045447064
2,14, 1,14, 0, 8, 0.00,60.00,Sunday
281,20.000000000000033
282,6.644649195177913
2,14, 1,14, 0, 9, 0.00,60.00,Sunday
281,20.000000000000055
282,8.22373736644889
2,14, 1,14, 0,10, 0.00,60.00,Sunday
281,20.000000000000026
282,9.958090488814847
2,14, 1,14, 0,11, 0.00,60.00,Sunday
281,20.000000000000008
282,12.193611449134563
2,14, 1,14, 0,12, 0.00,60.00,Sunday
281,20.321027920802626
282,13.109996498599872
2,14, 1,14, 0,13, 0.00,60.00,Sunday
281,20.391726721107614
282,14.02345823591613
2,14, 1,14, 0,14, 0.00,60.00,Sunday
281,20.38948057775341
282,13.816632699591553
2,14, 1,14, 0,15, 0.00,60.00,Sunday
281,20.452563380550456
282,13.047295716353699
2,14, 1,14, 0,16, 0.00,60.00,Sunday
281,20.362347984224316
282,12.414360496959679
2,14, 1,14, 0,17, 0.00,60.00,Sunday
281,20.14748321735432
282,10.276326562062577
2,14, 1,14, 0,18, 0.00,60.00,Sunday
281,20.07299539596885
282,9.067840519364028
2,14, 1,14, 0,19, 0.00,60.00,Sunday
281,20.00006580643889
282,7.316517807114148
2,14, 1,14, 0,20, 0.00,60.00,Sunday
281,20.000000500172818
282,5.7107114876578619
2,14, 1,14, 0,21, 0.00,60.00,Sunday
281,20.000000008601508
282,2.9733884776304078
2,14, 1,14, 0,22, 0.00,60.00,Sunday
281,20.000000000216134
282,1.269372784750582
2,14, 1,14, 0,23, 0.00,60.00,Sunday
281,20.000000000006574
282,0.6924631635617536
2,14, 1,14, 0,24, 0.00,60.00,Sunday
281,20.00000000000025
282,-0.9783725159803673
2,15, 1,15, 0, 1, 0.00,60.00,Monday
281,20.000000000000033
282,-1.0500665950430309
2,15, 1,15, 0, 2, 0.00,60.00,Monday
281,20.0
282,-1.6519273561633759