Program Version,EnergyPlus, Version 9.2.0-921312fa1d, YMD=2019.10.24 09:57
1,5,Environment Title[],Latitude[deg],Longitude[deg],Time Zone[],Elevation[m]
2,8,Day of Simulation[],Month[],Day of Month[],DST Indicator[1=yes 0=no],Hour[],StartMinute[],EndMinute[],DayType
3,5,Cumulative Day of Simulation[],Month[],Day of Month[],DST Indicator[1=yes 0=no],DayType  ! When Daily Report Variables Requested
4,2,Cumulative Days of Simulation[],Month[]  ! When Monthly Report Variables Requested
5,1,Cumulative Days of Simulation[] ! When Run Period Report Variables Requested
6,1,Calendar Year of Simulation[] ! When Annual Report Variables Requested
276,9,EMS,central ac supply fan cool disaggregate [J] !Monthly [Value,Min,Day,Hour,Minute,Max,Day,Hour,Minute]
277,11,EMS,central ac supply fan cool disaggregate [J] !RunPeriod [Value,Min,Month,Day,Hour,Minute,Max,Month,Day,Hour,Minute]
278,11,EMS,furnace supply fan heat disaggregate [J] !RunPeriod [Value,Min,Month,Day,Hour,Minute,Max,Month,Day,Hour,Minute]
279,9,EMS,furnace supply fan heat disaggregate [J] !Monthly [Value,Min,Day,Hour,Minute,Max,Day,Hour,Minute]
280,11,EMS,water heater EC adjustment [J] !RunPeriod [Value,Min,Month,Day,Hour,Minute,Max,Month,Day,Hour,Minute]
281,1,LIVING,Zone Mean Air Temperature [C] !Hourly
282,1,VENTED ATTIC,Zone Mean Air Temperature [C] !Hourly
546,11,CENTRAL AC CLG COIL,Cooling Coil Electric Energy [J] !RunPeriod [Value,Min,Month,Day,Hour,Minute,Max,Month,Day,Hour,Minute]
572,11,FURNACE HTG COIL,Heating Coil Gas Energy [J] !RunPeriod [Value,Min,Month,Day,Hour,Minute,Max,Month,Day,Hour,Minute]
837,11,WATER USE CONNECTIONS 1,Water Use Connections Plant Hot Water Energy [J] !RunPeriod [Value,Min,Month,Day,Hour,Minute,Max,Month,Day,Hour,Minute]
874,11,WATER HEATER,Water Heater Heat Loss Energy [J] !RunPeriod [Value,Min,Month,Day,Hour,Minute,Max,Month,Day,Hour,Minute]
889,11,WATER HEATER,Water Heater Electric Energy [J] !RunPeriod [Value,Min,Month,Day,Hour,Minute,Max,Month,Day,Hour,Minute]
927,11,WATER HEATER,Water Heater Off Cycle Parasitic Electric Energy [J] !RunPeriod [Value,Min,Month,Day,Hour,Minute,Max,Month,Day,Hour,Minute]
929,11,WATER HEATER,Water Heater On Cycle Parasitic Electric Energy [J] !RunPeriod [Value,Min,Month,Day,Hour,Minute,Max,Month,Day,Hour,Minute]
1092,11,CENTRAL AC CLG COIL,Cooling Coil Crankcase Heater Electric Energy [J] !RunPeriod [Value,Min,Month,Day,Hour,Minute,Max,Month,Day,Hour,Minute]
End of Data Dictionary
1,RUN PERIOD 1,  39.83,-104.65,  -7.00,1650.00
2,1, 1, 1, 0, 1, 0.00,60.00,Monday
281,20.007670287500607
282,-12.825543795211122
2,1, 1, 1, 0, 2, 0.00,60.00,Monday
281,20.00034761822528
282,-13.591684268160032
2,1, 1, 1, 0, 3, 0.00,60.00,Monday
281,20.000017298173405
282,-13.954321914468207
2,1, 1, 1, 0, 4, 0.00,60.00,Monday
281,20.00000092764302
282,-15.098981004905728
2,1, 1, 1, 0, 5, 0.00,60.00,Monday
281,20.000000051380395
282,-15.196408327741953
2,1, 1, 1, 0, 6, 0.00,60.00,Monday
281,20.00000000279393
282,-14.399300992251085
2,1, 1, 1, 0, 7, 0.00,60.00,Monday
281,20.000000000147556
282,-13.390495207408389
2,1, 1, 1, 0, 8, 0.00,60.00,Monday
281,20.000000000007387
282,-8.915849931722523
2,1, 1, 1, 0, 9, 0.00,60.00,Monday
281,20.00000000000035
282,-6.913885351156581
2,1, 1, 1, 0,10, 0.00,60.00,Monday
281,20.000000000000076
282,-2.794992482728419
2,1, 1, 1, 0,11, 0.00,60.00,Monday
281,20.00000000000002
282,1.1801261851165812
2,1, 1, 1, 0,12, 0.00,60.00,Monday
281,20.000000000000033
282,2.968877426829029
2,1, 1, 1, 0,13, 0.00,60.00,Monday
281,20.000000000000065
282,4.525724162843242
2,1, 1, 1, 0,14, 0.00,60.00,Monday
281,19.99999999999999
282,3.4897619479856014
2,1, 1, 1, 0,15, 0.00,60.00,Monday
281,20.000000000000026
282,4.046391566210362
2,1, 1, 1, 0,16, 0.00,60.00,Monday
281,20.0
282,2.438585449491135
2,1, 1, 1, 0,17, 0.00,60.00,Monday
281,20.00000000000001
282,-0.14661351674040044
2,1, 1, 1, 0,18, 0.00,60.00,Monday
281,20.000000000000005
282,-2.019204813226055
2,1, 1, 1, 0,19, 0.00,60.00,Monday
281,20.000000000000087
282,-4.794228626268216
2,1, 1, 1, 0,20, 0.00,60.00,Monday
281,20.000000000000044
282,-5.501434364809655
2,1, 1, 1, 0,21, 0.00,60.00,Monday
281,20.000000000000087
282,-5.982889198435067
2,1, 1, 1, 0,22, 0.00,60.00,Monday
281,20.000000000000005
282,-6.13707875292253
2,1, 1, 1, 0,23, 0.00,60.00,Monday
281,20.000000000000008
282,-6.166390384351002
2,1, 1, 1, 0,24, 0.00,60.00,Monday
281,20.000000000000097
282,-5.070549139167755
2,2, 1, 2, 0, 1, 0.00,60.00,Tuesday
281,20.00000000000005
282,-5.0444892766405549
2,2, 1, 2, 0, 2, 0.00,60.00,Tuesday
281,20.000000000000129
282,-5.629724411691786
2,2, 1, 2, 0, 3, 0.00,60.00,Tuesday
281,19.99999999999991
282,-5.055357554708999
2,2, 1, 2, 0, 4, 0.00,60.00,Tuesday
281,20.000000000000136
282,-6.693277453510826
2,2, 1, 2, 0, 5, 0.00,60.00,Tuesday
281,19.99999999999992
282,-5.697013709976703
2,2, 1, 2, 0, 6, 0.00,60.00,Tuesday
281,19.999999999999994
282,-6.184894943038519
2,2, 1, 2, 0, 7, 0.00,60.00,Tuesday
281,19.99999999999999
282,-4.649750335106722
2,2, 1, 2, 0, 8, 0.00,60.00,Tuesday
281,19.999999999999998
282,-3.4345207290943464
2,2, 1, 2, 0, 9, 0.00,60.00,Tuesday
281,20.0000000000001
282,-2.081669631939645
2,2, 1, 2, 0,10, 0.00,60.00,Tuesday
281,20.000000000000037
282,1.7951570868808927
2,2, 1, 2, 0,11, 0.00,60.00,Tuesday
281,20.000000000000019
282,5.451913889834813
2,2, 1, 2, 0,12, 0.00,60.00,Tuesday
281,20.00000000000002
282,9.025715885646817
2,2, 1, 2, 0,13, 0.00,60.00,Tuesday
281,19.999999999999987
282,9.788626055469028
2,2, 1, 2, 0,14, 0.00,60.00,Tuesday
281,20.00000000000001
282,9.950972560031673
2,2, 1, 2, 0,15, 0.00,60.00,Tuesday
281,20.10532930329432
282,10.443133701796699
2,2, 1, 2, 0,16, 0.00,60.00,Tuesday
281,20.040035524078655
282,8.3965999392352
2,2, 1, 2, 0,17, 0.00,60.00,Tuesday
281,20.000224041208648
282,7.177881314876764
2,2, 1, 2, 0,18, 0.00,60.00,Tuesday
281,20.000002600178907
282,5.258321314887202
2,2, 1, 2, 0,19, 0.00,60.00,Tuesday
281,20.00000005521863
282,1.4617926934046178
2,2, 1, 2, 0,20, 0.00,60.00,Tuesday
281,20.000000001376553
282,0.1912818076264272
2,2, 1, 2, 0,21, 0.00,60.00,Tuesday
281,20.00000000004353
282,-1.547956856670313
2,2, 1, 2, 0,22, 0.00,60.00,Tuesday
281,20.000000000001429
282,-1.1344161985229755
2,2, 1, 2, 0,23, 0.00,60.00,Tuesday
281,20.000000000000119
282,-1.5814851826370018
2,2, 1, 2, 0,24, 0.00,60.00,Tuesday
281,20.000000000000094
282,-0.3290373700518197
2,3, 1, 3, 0, 1, 0.00,60.00,Wednesday
281,20.0000000000001
282,-0.7476568758030895
2,3, 1, 3, 0, 2, 0.00,60.00,Wednesday
281,19.999999999999909
282,-0.7021559703949913
2,3, 1, 3, 0, 3, 0.00,60.00,Wednesday
281,19.99999999999998
282,-1.1636376613437623
2,3, 1, 3, 0, 4, 0.00,60.00,Wednesday
281,20.000000000000037
282,-1.7441416336942549
2,3, 1, 3, 0, 5, 0.00,60.00,Wednesday
281,20.00000000000001
282,-1.7515040549950403
2,3, 1, 3, 0, 6, 0.00,60.00,Wednesday
281,20.00000000000002
282,-1.1624775413205047
2,3, 1, 3, 0, 7, 0.00,60.00,Wednesday
281,20.000000000000108
282,-1.1627873508144653
2,3, 1, 3, 0, 8, 0.00,60.00,Wednesday
281,20.00000000000001
282,-0.663969286611248
2,3, 1, 3, 0, 9, 0.00,60.00,Wednesday
281,20.00000000000001
282,3.0675566551486415
2,3, 1, 3, 0,10, 0.00,60.00,Wednesday
281,20.00000000000001
282,5.428780140290416
2,3, 1, 3, 0,11, 0.00,60.00,Wednesday
281,19.99999999999997
282,6.3363629400015439
2,3, 1, 3, 0,12, 0.00,60.00,Wednesday
281,20.00000000000002
282,6.8107203419534099
2,3, 1, 3, 0,13, 0.00,60.00,Wednesday
281,20.000000000000008
282,5.787150719224132
2,3, 1, 3, 0,14, 0.00,60.00,Wednesday
281,20.000000000000005
282,4.772421558540648
2,3, 1, 3, 0,15, 0.00,60.00,Wednesday
281,20.000000000000019
282,2.6089768397868897
2,3, 1, 3, 0,16, 0.00,60.00,Wednesday
281,20.000000000000026
282,0.04235229407026235
2,3, 1, 3, 0,17, 0.00,60.00,Wednesday
281,20.00000000000008
282,-2.574007781663044
2,3, 1, 3, 0,18, 0.00,60.00,Wednesday
281,20.000000000000037
282,-5.2225295094541679
2,3, 1, 3, 0,19, 0.00,60.00,Wednesday
281,19.999999999999959
282,-5.305662190567283
2,3, 1, 3, 0,20, 0.00,60.00,Wednesday
281,19.999999999999998
282,-6.318964241110076
2,3, 1, 3, 0,21, 0.00,60.00,Wednesday
281,20.000000000000055
282,-8.252876640088705
2,3, 1, 3, 0,22, 0.00,60.00,Wednesday
281,20.000000000000058
282,-9.65117139894159
2,3, 1, 3, 0,23, 0.00,60.00,Wednesday
281,19.99999999999999
282,-11.103903105192196
2,3, 1, 3, 0,24, 0.00,60.00,Wednesday
281,20.000000000000008
282,-12.174465241298435
2,4, 1, 4, 0, 1, 0.00,60.00,Thursday
281,20.00000000000026
282,-12.53370773082306
2,4, 1, 4, 0, 2, 0.00,60.00,Thursday
281,20.00000000000004
282,-14.023273033037169
2,4, 1, 4, 0, 3, 0.00,60.00,Thursday
281,19.99999999999985
282,-15.85175072699392
2,4, 1, 4, 0, 4, 0.00,60.00,Thursday
281,20.000000000000154
282,-14.758135191686188
2,4, 1, 4, 0, 5, 0.00,60.00,Thursday
281,20.00000000000004
282,-14.422636435663268
2,4, 1, 4, 0, 6, 0.00,60.00,Thursday
281,20.000000000000044
282,-13.707615963701326
2,4, 1, 4, 0, 7, 0.00,60.00,Thursday
281,20.000000000000008
282,-14.615134238007278
2,4, 1, 4, 0, 8, 0.00,60.00,Thursday
281,20.000000000000143
282,-13.101299016407547
2,4, 1, 4, 0, 9, 0.00,60.00,Thursday
281,19.999999999999984
282,-10.238230023157819
2,4, 1, 4, 0,10, 0.00,60.00,Thursday
281,20.000000000000104
282,-2.1415566817048465
2,4, 1, 4, 0,11, 0.00,60.00,Thursday
281,19.99999999999996
282,2.27300422325249
2,4, 1, 4, 0,12, 0.00,60.00,Thursday
281,20.000000000000058
282,2.8643601946912544
2,4, 1, 4, 0,13, 0.00,60.00,Thursday
281,20.000000000000044
282,7.786879292313496
2,4, 1, 4, 0,14, 0.00,60.00,Thursday
281,20.000000000000005
282,9.483143771957075
2,4, 1, 4, 0,15, 0.00,60.00,Thursday
281,20.000000000000019
282,10.965293428481706
2,4, 1, 4, 0,16, 0.00,60.00,Thursday
281,20.000000000000005
282,9.998894372754366
2,4, 1, 4, 0,17, 0.00,60.00,Thursday
281,20.000000000000019
282,8.153432645331665
2,4, 1, 4, 0,18, 0.00,60.00,Thursday
281,20.000000000000058
282,7.222888836435155
2,4, 1, 4, 0,19, 0.00,60.00,Thursday
281,20.000000000000015
282,6.122960875290588
2,4, 1, 4, 0,20, 0.00,60.00,Thursday
281,20.000000000000008
282,7.023144090700568
2,4, 1, 4, 0,21, 0.00,60.00,Thursday
281,20.00000000000005
282,6.049407993278571
2,4, 1, 4, 0,22, 0.00,60.00,Thursday
281,20.000000000000055
282,5.5151518013539
2,4, 1, 4, 0,23, 0.00,60.00,Thursday
281,20.000000000000065
282,4.918763151091305
2,4, 1, 4, 0,24, 0.00,60.00,Thursday
281,19.999999999999976
282,9.780102306046216
2,5, 1, 5, 0, 1, 0.00,60.00,Friday
281,20.000000000000037
282,5.159572036668623
2,5, 1, 5, 0, 2, 0.00,60.00,Friday
281,19.999999999999966
282,10.31454715706077
2,5, 1, 5, 0, 3, 0.00,60.00,Friday
281,19.999999999999998
282,10.91518295062903
2,5, 1, 5, 0, 4, 0.00,60.00,Friday
281,19.99999999999994
282,9.328855648949777
2,5, 1, 5, 0, 5, 0.00,60.00,Friday
281,20.00000000000008
282,9.2621550846525
2,5, 1, 5, 0, 6, 0.00,60.00,Friday
281,20.000000000000005
282,9.2728832490771
2,5, 1, 5, 0, 7, 0.00,60.00,Friday
281,20.00000000000001
282,5.127779182968064
2,5, 1, 5, 0, 8, 0.00,60.00,Friday
281,20.000000000000026
282,9.11644412473521
2,5, 1, 5, 0, 9, 0.00,60.00,Friday
281,20.000000000000015
282,8.874838805596287
2,5, 1, 5, 0,10, 0.00,60.00,Friday
281,20.10371311705747
282,12.670892777671167
2,5, 1, 5, 0,11, 0.00,60.00,Friday
281,20.0899644311099
282,12.902375452071695
2,5, 1, 5, 0,12, 0.00,60.00,Friday
281,20.557478937874899
282,15.146162386733842
2,5, 1, 5, 0,13, 0.00,60.00,Friday
281,20.847488731088796
282,14.85534929243271
2,5, 1, 5, 0,14, 0.00,60.00,Friday
281,21.010627336383008
282,13.692481603209249
2,5, 1, 5, 0,15, 0.00,60.00,Friday
281,21.067157229801024
282,11.2599424550935
2,5, 1, 5, 0,16, 0.00,60.00,Friday
281,21.076371816629604
282,9.577482595006528
2,5, 1, 5, 0,17, 0.00,60.00,Friday
281,20.836145943767606
282,6.545938873482151
2,5, 1, 5, 0,18, 0.00,60.00,Friday
281,20.63644908487116
282,5.972210336619842
2,5, 1, 5, 0,19, 0.00,60.00,Friday
281,20.438375427815385
282,4.092632674664647
2,5, 1, 5, 0,20, 0.00,60.00,Friday
281,20.219879967504786
282,3.377481194874126
2,5, 1, 5, 0,21, 0.00,60.00,Friday
281,20.0010788514934
282,1.7902933452172572
2,5, 1, 5, 0,22, 0.00,60.00,Friday
281,20.00001551917126
282,0.21671558668769168
2,5, 1, 5, 0,23, 0.00,60.00,Friday
281,20.000000337438629
282,0.5568624349268742
2,5, 1, 5, 0,24, 0.00,60.00,Friday
281,20.000000011329925
282,-0.03599861943322345
2,6, 1, 6, 0, 1, 0.00,60.00,Saturday
281,20.000000000407505
282,-0.053579991984539759
2,6, 1, 6, 0, 2, 0.00,60.00,Saturday
281,20.000000000014756
282,0.9779070191057004
2,6, 1, 6, 0, 3, 0.00,60.00,Saturday
281,20.00000000000053
282,0.5344878143023837
2,6, 1, 6, 0, 4, 0.00,60.00,Saturday
281,20.00000000000011
282,-0.03286589138271946
2,6, 1, 6, 0, 5, 0.00,60.00,Saturday
281,20.000000000000097
282,-0.6649868659292547
2,6, 1, 6, 0, 6, 0.00,60.00,Saturday
281,19.999999999999948
282,-0.1604972755937884
2,6, 1, 6, 0, 7, 0.00,60.00,Saturday
281,20.000000000000065
282,-0.6786620938622556
2,6, 1, 6, 0, 8, 0.00,60.00,Saturday
281,19.999999999999909
282,-0.6652803821410881
2,6, 1, 6, 0, 9, 0.00,60.00,Saturday
281,19.999999999999984
282,-0.5980106342283107
2,6, 1, 6, 0,10, 0.00,60.00,Saturday
281,20.00000000000004
282,0.11048035852813414
2,6, 1, 6, 0,11, 0.00,60.00,Saturday
281,20.000000000000044
282,0.9024201141526181
2,6, 1, 6, 0,12, 0.00,60.00,Saturday
281,20.00000000000002
282,1.6922415707819776
2,6, 1, 6, 0,13, 0.00,60.00,Saturday
281,20.000000000000026
282,1.9824144614210125
2,6, 1, 6, 0,14, 0.00,60.00,Saturday
281,20.0
282,1.4371919088579344
2,6, 1, 6, 0,15, 0.00,60.00,Saturday
281,20.00000000000001
282,1.8962182826903067
2,6, 1, 6, 0,16, 0.00,60.00,Saturday
281,20.0
282,0.8276206077045565
2,6, 1, 6, 0,17, 0.00,60.00,Saturday
281,20.000000000000037
282,-0.4443418554189502
2,6, 1, 6, 0,18, 0.00,60.00,Saturday
281,20.000000000000008
282,-1.5463414547686796
2,6, 1, 6, 0,19, 0.00,60.00,Saturday
281,20.000000000000069
282,-3.1423900337007137
2,6, 1, 6, 0,20, 0.00,60.00,Saturday
281,20.000000000000026
282,-4.3142990914481109
2,6, 1, 6, 0,21, 0.00,60.00,Saturday
281,20.00000000000003
282,-5.774140685286892
2,6, 1, 6, 0,22, 0.00,60.00,Saturday
281,19.999999999999969
282,-7.5827213176670409
2,6, 1, 6, 0,23, 0.00,60.00,Saturday
281,19.99999999999989
282,-7.697575979807905
2,6, 1, 6, 0,24, 0.00,60.00,Saturday
281,20.00000000000012
282,-8.77825231306019
2,7, 1, 7, 0, 1, 0.00,60.00,Sunday
281,20.000000000000136
282,-8.864538285112865
2,7, 1, 7, 0, 2, 0.00,60.00,Sunday
281,19.99999999999993
282,-8.32261242744155
2,7, 1, 7, 0, 3, 0.00,60.00,Sunday
281,20.00000000000014
282,-10.468246265838756
2,7, 1, 7, 0, 4, 0.00,60.00,Sunday
281,19.999999999999866
282,-11.839833262797356
2,7, 1, 7, 0, 5, 0.00,60.00,Sunday
281,20.000000000000143
282,-12.064981708227715
2,7, 1, 7, 0, 6, 0.00,60.00,Sunday
281,19.999999999999888
282,-12.74293036010608
2,7, 1, 7, 0, 7, 0.00,60.00,Sunday
281,20.000000000000008
282,-12.78245669620593
2,7, 1, 7, 0, 8, 0.00,60.00,Sunday
281,20.00000000000024
282,-3.534012940725689
2,7, 1, 7, 0, 9, 0.00,60.00,Sunday
281,19.999999999999955
282,-1.1334257063590628
2,7, 1, 7, 0,10, 0.00,60.00,Sunday
281,20.000000000000104
282,0.23915957071881165
2,7, 1, 7, 0,11, 0.00,60.00,Sunday
281,19.999999999999884
282,2.1836264444856035
2,7, 1, 7, 0,12, 0.00,60.00,Sunday
281,20.00000000000017
282,4.589536581600939
2,7, 1, 7, 0,13, 0.00,60.00,Sunday
281,20.000000000000087
282,5.4328233053781
2,7, 1, 7, 0,14, 0.00,60.00,Sunday
281,20.000000000000019
282,5.040809912990434
2,7, 1, 7, 0,15, 0.00,60.00,Sunday
281,20.00000000000003
282,5.0131975815619589
2,7, 1, 7, 0,16, 0.00,60.00,Sunday
281,20.000000000000087
282,4.4720504742907949
2,7, 1, 7, 0,17, 0.00,60.00,Sunday
281,20.000000000000097
282,4.9567894653080979
2,7, 1, 7, 0,18, 0.00,60.00,Sunday
281,19.999999999999959
282,5.5300958591308089
2,7, 1, 7, 0,19, 0.00,60.00,Sunday
281,20.000000000000008
282,4.947737978414411
2,7, 1, 7, 0,20, 0.00,60.00,Sunday
281,20.0
282,4.365282439550723
2,7, 1, 7, 0,21, 0.00,60.00,Sunday
281,20.000000000000037
282,2.2393939614232205
2,7, 1, 7, 0,22, 0.00,60.00,Sunday
281,20.000000000000037
282,-0.4256130253568698
2,7, 1, 7, 0,23, 0.00,60.00,Sunday
281,20.00000000000003
282,-0.013507103618585462
2,7, 1, 7, 0,24, 0.00,60.00,Sunday
281,20.000000000000055
282,1.5611064317215196
2,8, 1, 8, 0, 1, 0.00,60.00,Monday
281,20.000000000000047
282,1.6168982424951795
2,8, 1, 8, 0, 2, 0.00,60.00,Monday
281,20.000000000000005
282,1.065308253909484
2,8, 1, 8, 0, 3, 0.00,60.00,Monday
281,19.999999999999998
282,-0.5632271653704862
2,8, 1, 8, 0, 4, 0.00,60.00,Monday
281,20.00000000000024
282,-1.6790314091005503
2,8, 1, 8, 0, 5, 0.00,60.00,Monday
281,20.000000000000015
282,-3.2474328256955728
2,8, 1, 8, 0, 6, 0.00,60.00,Monday
281,20.00000000000012
282,-3.281002479893789
2,8, 1, 8, 0, 7, 0.00,60.00,Monday
281,20.000000000000076
282,-4.363044749092794
2,8, 1, 8, 0, 8, 0.00,60.00,Monday
281,20.000000000000119
282,-2.908282804847339
2,8, 1, 8, 0, 9, 0.00,60.00,Monday
281,20.00000000000007
282,2.018950468296669
2,8, 1, 8, 0,10, 0.00,60.00,Monday
281,20.000000000000047
282,4.860559036306946
2,8, 1, 8, 0,11, 0.00,60.00,Monday
281,20.00000000000001
282,7.1595834334354999
2,8, 1, 8, 0,12, 0.00,60.00,Monday
281,20.00000000000001
282,7.87712319787881
2,8, 1, 8, 0,13, 0.00,60.00,Monday
281,20.01417272554521
282,10.662916953599508
2,8, 1, 8, 0,14, 0.00,60.00,Monday
281,20.264953722638
282,10.85535153601647
2,8, 1, 8, 0,15, 0.00,60.00,Monday
281,20.415722224553297
282,8.293835380852335
2,8, 1, 8, 0,16, 0.00,60.00,Monday
281,20.56526977363804
282,7.565210071237446
2,8, 1, 8, 0,17, 0.00,60.00,Monday
281,20.319438643002326
282,5.015478585877573
2,8, 1, 8, 0,18, 0.00,60.00,Monday
281,20.001764054209624
282,1.2112173317927822
2,8, 1, 8, 0,19, 0.00,60.00,Monday
281,20.000033180250399
282,-0.36544700452456999
2,8, 1, 8, 0,20, 0.00,60.00,Monday
281,20.00000082285585
282,-1.5774716344633902
2,8, 1, 8, 0,21, 0.00,60.00,Monday
281,20.000000021828556
282,-1.0886986791832383
2,8, 1, 8, 0,22, 0.00,60.00,Monday
281,20.00000000081387
282,-2.1558881710263706
2,8, 1, 8, 0,23, 0.00,60.00,Monday
281,20.00000000002872
282,-1.7201667177290779
2,8, 1, 8, 0,24, 0.00,60.00,Monday
281,20.000000000001266
282,-2.7795066573196309
2,9, 1, 9, 0, 1, 0.00,60.00,Tuesday
281,20.00000000000027
282,-3.2923234275564319
2,9, 1, 9, 0, 2, 0.00,60.00,Tuesday
281,19.99999999999998
282,-3.317879032767562
2,9, 1, 9, 0, 3, 0.00,60.00,Tuesday
281,20.0
282,-3.3339266155473559
2,9, 1, 9, 0, 4, 0.00,60.00,Tuesday
281,20.000000000000069
282,-3.3425421956484979
2,9, 1, 9, 0, 5, 0.00,60.00,Tuesday
281,20.000000000000005
282,-3.9294928187706699
2,9, 1, 9, 0, 6, 0.00,60.00,Tuesday
281,20.00000000000011
282,-3.3778959982985827
2,9, 1, 9, 0, 7, 0.00,60.00,Tuesday
281,20.00000000000001
282,-5.147277826443538
2,9, 1, 9, 0, 8, 0.00,60.00,Tuesday
281,20.000000000000033
282,-1.6215536230863006
2,9, 1, 9, 0, 9, 0.00,60.00,Tuesday
281,20.000000000000033
282,0.2675313628682505
2,9, 1, 9, 0,10, 0.00,60.00,Tuesday
281,20.00000000000001
282,2.6957129419683718
2,9, 1, 9, 0,11, 0.00,60.00,Tuesday
281,19.999999999999959
282,3.957201251706015
2,9, 1, 9, 0,12, 0.00,60.00,Tuesday
281,20.000000000000015
282,3.5777347807395736
2,9, 1, 9, 0,13, 0.00,60.00,Tuesday
281,20.000000000000047
282,3.619366716016153
2,9, 1, 9, 0,14, 0.00,60.00,Tuesday
281,20.000000000000005
282,4.196115834357834
2,9, 1, 9, 0,15, 0.00,60.00,Tuesday
281,20.022076254697489
282,4.677539416981701
2,9, 1, 9, 0,16, 0.00,60.00,Tuesday
281,20.060331047145778
282,4.236690446540617
2,9, 1, 9, 0,17, 0.00,60.00,Tuesday
281,20.000392189732069
282,3.1126133009812495
2,9, 1, 9, 0,18, 0.00,60.00,Tuesday
281,20.00000656830482
282,1.3376381596354099
2,9, 1, 9, 0,19, 0.00,60.00,Tuesday
281,20.00000014008572
282,0.11874950951497908
2,9, 1, 9, 0,20, 0.00,60.00,Tuesday
281,20.000000003408809
282,0.5824936989684221
2,9, 1, 9, 0,21, 0.00,60.00,Tuesday
281,20.000000000118996
282,-1.6289546099269885
2,9, 1, 9, 0,22, 0.00,60.00,Tuesday
281,20.00000000000453
282,-1.7023914311282603
2,9, 1, 9, 0,23, 0.00,60.00,Tuesday
281,20.000000000000364
282,-2.7706210365991135
2,9, 1, 9, 0,24, 0.00,60.00,Tuesday
281,19.999999999999959
282,-4.344224819902256
2,10, 1,10, 0, 1, 0.00,60.00,Wednesday
281,20.00000000000003
282,-4.397542340917429
2,10, 1,10, 0, 2, 0.00,60.00,Wednesday
281,19.99999999999998
282,-4.995188304828787
2,10, 1,10, 0, 3, 0.00,60.00,Wednesday
281,20.000000000000015
282,-5.037079567757252
2,10, 1,10, 0, 4, 0.00,60.00,Wednesday
281,19.99999999999993
282,-5.6168757992006619
2,10, 1,10, 0, 5, 0.00,60.00,Wednesday
281,20.000000000000126
282,-6.112338548308188
2,10, 1,10, 0, 6, 0.00,60.00,Wednesday
281,20.00000000000014
282,-6.705335321667289
2,10, 1,10, 0, 7, 0.00,60.00,Wednesday
281,20.00000000000001
282,-5.729030765247049
2,10, 1,10, 0, 8, 0.00,60.00,Wednesday
281,20.00000000000002
282,-5.085898753685799
2,10, 1,10, 0, 9, 0.00,60.00,Wednesday
281,20.000000000000005
282,-1.8318100760002683
2,10, 1,10, 0,10, 0.00,60.00,Wednesday
281,19.999999999999966
282,1.5862959781293223
2,10, 1,10, 0,11, 0.00,60.00,Wednesday
281,20.00000000000002
282,4.37396642891586
2,10, 1,10, 0,12, 0.00,60.00,Wednesday
281,20.000000000000037
282,6.2480485530378939
2,10, 1,10, 0,13, 0.00,60.00,Wednesday
281,20.01289801551403
282,8.237174342060202
2,10, 1,10, 0,14, 0.00,60.00,Wednesday
281,20.122179178503953
282,8.38554828993166
2,10, 1,10, 0,15, 0.00,60.00,Wednesday
281,20.34928592812354
282,12.803122425359725
2,10, 1,10, 0,16, 0.00,60.00,Wednesday
281,20.472227406241353
282,7.079657939842611
2,10, 1,10, 0,17, 0.00,60.00,Wednesday
281,20.254824334168356
282,4.581702185835659
2,10, 1,10, 0,18, 0.00,60.00,Wednesday
281,20.00151152821827
282,1.4282055438210908
2,10, 1,10, 0,19, 0.00,60.00,Wednesday
281,20.000024915546338
282,-0.7324666394343159
2,10, 1,10, 0,20, 0.00,60.00,Wednesday
281,20.000000487171986
282,-2.000209882755958
2,10, 1,10, 0,21, 0.00,60.00,Wednesday
281,20.0000000124899
282,-1.1370706417538968
2,10, 1,10, 0,22, 0.00,60.00,Wednesday
281,20.00000000049402
282,-3.2409474907708217
2,10, 1,10, 0,23, 0.00,60.00,Wednesday
281,20.000000000020774
282,-4.325274397067652
2,10, 1,10, 0,24, 0.00,60.00,Wednesday
281,20.000000000001056
282,-4.983526362704006
2,11, 1,11, 0, 1, 0.00,60.00,Thursday
281,20.00000000000017
282,-5.582156238054261
2,11, 1,11, 0, 2, 0.00,60.00,Thursday
281,20.00000000000003
282,-6.092588251808093
2,11, 1,11, 0, 3, 0.00,60.00,Thursday
281,20.000000000000019
282,-6.134777597655836
2,11, 1,11, 0, 4, 0.00,60.00,Thursday
281,20.000000000000055
282,-5.666056048643836
2,11, 1,11, 0, 5, 0.00,60.00,Thursday
281,20.000000000000079
282,-5.072073168216986
2,11, 1,11, 0, 6, 0.00,60.00,Thursday
281,20.000000000000069
282,-4.009273966743653
2,11, 1,11, 0, 7, 0.00,60.00,Thursday
281,19.999999999999984
282,-3.9869711283217379
2,11, 1,11, 0, 8, 0.00,60.00,Thursday
281,20.000000000000168
282,-3.3854513720975629
2,11, 1,11, 0, 9, 0.00,60.00,Thursday
281,20.000000000000065
282,-1.7746563179412319
2,11, 1,11, 0,10, 0.00,60.00,Thursday
281,19.999999999999998
282,1.0212703464895785
2,11, 1,11, 0,11, 0.00,60.00,Thursday
281,20.00000000000004
282,6.942765484038525
2,11, 1,11, 0,12, 0.00,60.00,Thursday
281,20.000000000000019
282,8.162600255402685
2,11, 1,11, 0,13, 0.00,60.00,Thursday
281,19.999999999999998
282,10.720796320504446
2,11, 1,11, 0,14, 0.00,60.00,Thursday
281,20.108896767359157
282,11.827712520355475
2,11, 1,11, 0,15, 0.00,60.00,Thursday
281,20.09361347701118
282,12.302009559321738
2,11, 1,11, 0,16, 0.00,60.00,Thursday
281,20.00015788411435
282,10.240553834853094
2,11, 1,11, 0,17, 0.00,60.00,Thursday
281,20.000001055431935
282,8.534779579304729
2,11, 1,11, 0,18, 0.00,60.00,Thursday
281,20.000000007657634
282,7.910981018373031
2,11, 1,11, 0,19, 0.00,60.00,Thursday
281,20.00000000005462
282,7.246063663040817
2,11, 1,11, 0,20, 0.00,60.00,Thursday
281,20.000000000000758
282,5.651641438253359
2,11, 1,11, 0,21, 0.00,60.00,Thursday
281,20.00000000000005
282,4.443195096295633
2,11, 1,11, 0,22, 0.00,60.00,Thursday
281,20.00000000000004
282,6.0015669371818689
2,11, 1,11, 0,23, 0.00,60.00,Thursday
281,20.00000000000004
282,4.427363158223795
2,11, 1,11, 0,24, 0.00,60.00,Thursday
281,20.00000000000007
282,3.8982002187627806
2,12, 1,12, 0, 1, 0.00,60.00,Friday
281,20.000000000000005
282,2.8380416970441266
2,12, 1,12, 0, 2, 0.00,60.00,Friday
281,20.00000000000008
282,0.165176239615265
2,12, 1,12, 0, 3, 0.00,60.00,Friday
281,20.000000000000094
282,-0.9374682193864155
2,12, 1,12, 0, 4, 0.00,60.00,Friday
281,20.00000000000001
282,-3.134206466239557
2,12, 1,12, 0, 5, 0.00,60.00,Friday
281,20.000000000000065
282,-4.786662188641641
2,12, 1,12, 0, 6, 0.00,60.00,Friday
281,20.000000000000058
282,-5.481305967382589
2,12, 1,12, 0, 7, 0.00,60.00,Friday
281,20.00000000000015
282,-6.0186124287629909
2,12, 1,12, 0, 8, 0.00,60.00,Friday
281,20.000000000000019
282,-4.465879266236082
2,12, 1,12, 0, 9, 0.00,60.00,Friday
281,20.00000000000008
282,-0.8215853014186194
2,12, 1,12, 0,10, 0.00,60.00,Friday
281,20.000000000000186
282,1.9075896389102376
2,12, 1,12, 0,11, 0.00,60.00,Friday
281,20.000000000000015
282,5.61850337056494
2,12, 1,12, 0,12, 0.00,60.00,Friday
281,20.00000000000003
282,7.245338702919948
2,12, 1,12, 0,13, 0.00,60.00,Friday
281,20.00000000000004
282,7.733769527540327
2,12, 1,12, 0,14, 0.00,60.00,Friday
281,20.000000000000015
282,8.849342428436696
2,12, 1,12, 0,15, 0.00,60.00,Friday
281,20.00000000000006
282,8.309632814524571
2,12, 1,12, 0,16, 0.00,60.00,Friday
281,20.00000000000004
282,8.28990662126605
2,12, 1,12, 0,17, 0.00,60.00,Friday
281,19.999999999999948
282,4.504054254735022
2,12, 1,12, 0,18, 0.00,60.00,Friday
281,20.000000000000069
282,2.3787619437077915
2,12, 1,12, 0,19, 0.00,60.00,Friday
281,20.000000000000033
282,2.2491402791298107
2,12, 1,12, 0,20, 0.00,60.00,Friday
281,20.000000000000005
282,2.207069849903918
2,12, 1,12, 0,21, 0.00,60.00,Friday
281,20.000000000000079
282,-0.8623518302170109
2,12, 1,12, 0,22, 0.00,60.00,Friday
281,20.000000000000079
282,-2.0701663794075748
2,12, 1,12, 0,23, 0.00,60.00,Friday
281,19.999999999999984
282,-1.7096101996992248
2,12, 1,12, 0,24, 0.00,60.00,Friday
281,20.00000000000012
282,-1.7389167994134783
2,13, 1,13, 0, 1, 0.00,60.00,Saturday
281,20.000000000000126
282,0.4207339406683938
2,13, 1,13, 0, 2, 0.00,60.00,Saturday
281,20.000000000000129
282,2.974112985004741
2,13, 1,13, 0, 3, 0.00,60.00,Saturday
281,20.000000000000044
282,2.6649136538097699
2,13, 1,13, 0, 4, 0.00,60.00,Saturday
281,20.000000000000126
282,2.608908946629566
2,13, 1,13, 0, 5, 0.00,60.00,Saturday
281,20.000000000000097
282,3.026395232112421
2,13, 1,13, 0, 6, 0.00,60.00,Saturday
281,19.999999999999998
282,2.6433687941501335
2,13, 1,13, 0, 7, 0.00,60.00,Saturday
281,19.999999999999987
282,2.108727619568212
2,13, 1,13, 0, 8, 0.00,60.00,Saturday
281,20.0
282,3.1931973428683815
2,13, 1,13, 0, 9, 0.00,60.00,Saturday
281,19.999999999999998
282,5.446942433660122
2,13, 1,13, 0,10, 0.00,60.00,Saturday
281,20.000000000000037
282,7.72967409751315
2,13, 1,13, 0,11, 0.00,60.00,Saturday
281,20.000000000000005
282,9.509737610864827
2,13, 1,13, 0,12, 0.00,60.00,Saturday
281,20.249481598560306
282,10.054001860220512
2,13, 1,13, 0,13, 0.00,60.00,Saturday
281,20.546605041153418
282,11.50090294128426
2,13, 1,13, 0,14, 0.00,60.00,Saturday
281,20.669226707153798
282,11.380342862921806
2,13, 1,13, 0,15, 0.00,60.00,Saturday
281,20.90569455724002
282,15.810653213548829
2,13, 1,13, 0,16, 0.00,60.00,Saturday
281,21.073976273619175
282,15.117151234466434
2,13, 1,13, 0,17, 0.00,60.00,Saturday
281,20.967568674808818
282,8.984743237192099
2,13, 1,13, 0,18, 0.00,60.00,Saturday
281,20.751944790761916
282,7.727057353795544
2,13, 1,13, 0,19, 0.00,60.00,Saturday
281,20.590884381466045
282,6.850237561503644
2,13, 1,13, 0,20, 0.00,60.00,Saturday
281,20.52861205301004
282,6.792358398378011
2,13, 1,13, 0,21, 0.00,60.00,Saturday
281,20.369029672028736
282,6.057050278022154
2,13, 1,13, 0,22, 0.00,60.00,Saturday
281,20.000487426772837
282,3.4188727440203885
2,13, 1,13, 0,23, 0.00,60.00,Saturday
281,20.000007678206236
282,1.8354565554402423
2,13, 1,13, 0,24, 0.00,60.00,Saturday
281,20.000000173036449
282,2.7514375712353109
2,14, 1,14, 0, 1, 0.00,60.00,Sunday
281,20.000000004206485
282,5.453494649047386
2,14, 1,14, 0, 2, 0.00,60.00,Sunday
281,20.000000000092436
282,6.419299270511542
2,14, 1,14, 0, 3, 0.00,60.00,Sunday
281,20.00000000000231
282,7.052397019321721
2,14, 1,14, 0, 4, 0.00,60.00,Sunday
281,20.00000000000012
282,6.614579081591772
2,14, 1,14, 0, 5, 0.00,60.00,Sunday
281,20.000000000000069
282,6.617118130145799
2,14, 1,14, 0, 6, 0.00,60.00,Sunday
281,20.000000000000065
282,6.602090068568786
2,14, 1,14, 0, 7, 0.00,60.00,Sunday
281,20.000000000000079
282,6.630287025457563
2,14, 1,14, 0, 8, 0.00,60.00,Sunday
281,19.999999999999998
282,6.6446842878101919
2,14, 1,14, 0, 9, 0.00,60.00,Sunday
281,20.000000000000015
282,8.223779230935323
2,14, 1,14, 0,10, 0.00,60.00,Sunday
281,20.00000000000002
282,9.958131737898223
2,14, 1,14, 0,11, 0.00,60.00,Sunday
281,20.0
282,12.193641056907124
2,14, 1,14, 0,12, 0.00,60.00,Sunday
281,20.35888085131623
282,13.110127007177223
2,14, 1,14, 0,13, 0.00,60.00,Sunday
281,20.43958303789741
282,14.023556925974197
2,14, 1,14, 0,14, 0.00,60.00,Sunday
281,20.43971669992034
282,13.816730885928344
2,14, 1,14, 0,15, 0.00,60.00,Sunday
281,20.50543250703948
282,13.047357378999927
2,14, 1,14, 0,16, 0.00,60.00,Sunday
281,20.416872002686117
282,12.41444081184745
2,14, 1,14, 0,17, 0.00,60.00,Sunday
281,20.20147832528917
282,10.276444852593173
2,14, 1,14, 0,18, 0.00,60.00,Sunday
281,20.125886470636695
282,9.067965055451549
2,14, 1,14, 0,19, 0.00,60.00,Sunday
281,20.026398086349898
282,7.316615750710023
2,14, 1,14, 0,20, 0.00,60.00,Sunday
281,20.000166310894053
282,5.710813064964027
2,14, 1,14, 0,21, 0.00,60.00,Sunday
281,20.00000272472014
282,2.973501589418885
2,14, 1,14, 0,22, 0.00,60.00,Sunday
281,20.00000006647169
282,1.2694869742645934
2,14, 1,14, 0,23, 0.00,60.00,Sunday
281,20.000000002053019
282,0.6925608711402974
2,14, 1,14, 0,24, 0.00,60.00,Sunday
281,20.00000000007679
282,-0.9782743606609625
2,15, 1,15, 0, 1, 0.00,60.00,Monday