Program Version,EnergyPlus, Version 9.2.0-921312fa1d, YMD=2019.12.18 17:26
1,5,Environment Title[],Latitude[deg],Longitude[deg],Time Zone[],Elevation[m]
2,8,Day of Simulation[],Month[],Day of Month[],DST Indicator[1=yes 0=no],Hour[],StartMinute[],EndMinute[],DayType
3,5,Cumulative Day of Simulation[],Month[],Day of Month[],DST Indicator[1=yes 0=no],DayType  ! When Daily Meters Requested
4,2,Cumulative Days of Simulation[],Month[]  ! When Monthly Meters Requested
5,1,Cumulative Days of Simulation[] ! When Run Period Meters Requested
6,1,Calendar Year of Simulation[] ! When Annual Meters Requested
16,11,Electricity:Facility [J] !RunPeriod [Value,Min,Month,Day,Hour,Minute,Max,Month,Day,Hour,Minute]
645,11,Cooling:DistrictCooling [J] !RunPeriod [Value,Min,Month,Day,Hour,Minute,Max,Month,Day,Hour,Minute]
749,11,Gas:Facility [J] !RunPeriod [Value,Min,Month,Day,Hour,Minute,Max,Month,Day,Hour,Minute]
28,11,ExteriorLights:Electricity [J] !RunPeriod [Value,Min,Month,Day,Hour,Minute,Max,Month,Day,Hour,Minute]
494,11,Heating:EnergyTransfer [J] !RunPeriod [Value,Min,Month,Day,Hour,Minute,Max,Month,Day,Hour,Minute]
519,11,Cooling:EnergyTransfer [J] !RunPeriod [Value,Min,Month,Day,Hour,Minute,Max,Month,Day,Hour,Minute]
608,11,Heating:DistrictHeating [J] !RunPeriod [Value,Min,Month,Day,Hour,Minute,Max,Month,Day,Hour,Minute]
107,11,interior lighting:InteriorLights:Electricity [J] !RunPeriod [Value,Min,Month,Day,Hour,Minute,Max,Month,Day,Hour,Minute]
120,11,InteriorEquipment:Electricity [J] !RunPeriod [Value,Min,Month,Day,Hour,Minute,Max,Month,Day,Hour,Minute]
204,11,fridge:InteriorEquipment:Electricity [J] !RunPeriod [Value,Min,Month,Day,Hour,Minute,Max,Month,Day,Hour,Minute]
189,11,dishwasher:InteriorEquipment:Electricity [J] !RunPeriod [Value,Min,Month,Day,Hour,Minute,Max,Month,Day,Hour,Minute]
159,11,clothes washer:InteriorEquipment:Electricity [J] !RunPeriod [Value,Min,Month,Day,Hour,Minute,Max,Month,Day,Hour,Minute]
144,11,clothes dryer:InteriorEquipment:Electricity [J] !RunPeriod [Value,Min,Month,Day,Hour,Minute,Max,Month,Day,Hour,Minute]
745,1,Gas:Facility [J] !Hourly
264,11,misc plug loads:InteriorEquipment:Electricity [J] !RunPeriod [Value,Min,Month,Day,Hour,Minute,Max,Month,Day,Hour,Minute]
279,11,misc tv:InteriorEquipment:Electricity [J] !RunPeriod [Value,Min,Month,Day,Hour,Minute,Max,Month,Day,Hour,Minute]
174,11,cooking range:InteriorEquipment:Electricity [J] !RunPeriod [Value,Min,Month,Day,Hour,Minute,Max,Month,Day,Hour,Minute]
234,11,mech vent house fan:InteriorEquipment:Electricity [J] !RunPeriod [Value,Min,Month,Day,Hour,Minute,Max,Month,Day,Hour,Minute]
12,1,Electricity:Facility [J] !Hourly
End of Data Dictionary
1,RUN PERIOD 1,  39.83,-104.65,  -7.00,1650.00
2,1, 1, 1, 0, 1, 0.00,60.00,Monday
12,2665656.2950663527
745,11144520.795729233
2,1, 1, 1, 0, 2, 0.00,60.00,Monday
12,2408784.4908387188
745,13734385.218016204
2,1, 1, 1, 0, 3, 0.00,60.00,Monday
12,2322569.4782859405
745,15164692.547740279
2,1, 1, 1, 0, 4, 0.00,60.00,Monday
12,2282616.8776687255
745,16265379.717482595
2,1, 1, 1, 0, 5, 0.00,60.00,Monday
12,2224883.6435560558
745,16773807.053813978
2,1, 1, 1, 0, 6, 0.00,60.00,Monday
12,2665170.671951031
745,16374120.029120123
2,1, 1, 1, 0, 7, 0.00,60.00,Monday
12,3722286.381668874
745,15798728.680541126
2,1, 1, 1, 0, 8, 0.00,60.00,Monday
12,5553245.952042034
745,14872102.773778795
2,1, 1, 1, 0, 9, 0.00,60.00,Monday
12,10535721.735429263
745,13201441.006735323
2,1, 1, 1, 0,10, 0.00,60.00,Monday
12,3866670.366429654
745,8683786.778851919
2,1, 1, 1, 0,11, 0.00,60.00,Monday
12,3862840.561045481
745,5685265.793061405
2,1, 1, 1, 0,12, 0.00,60.00,Monday
12,5026186.584956858
745,4046014.53160513
2,1, 1, 1, 0,13, 0.00,60.00,Monday
12,5001224.431097717
745,3799836.2122054516
2,1, 1, 1, 0,14, 0.00,60.00,Monday
12,3788998.061766893
745,3790093.757571922
2,1, 1, 1, 0,15, 0.00,60.00,Monday
12,5052946.369532743
745,2975799.0302343878
2,1, 1, 1, 0,16, 0.00,60.00,Monday
12,5513409.003109603
745,2913247.494106278
2,1, 1, 1, 0,17, 0.00,60.00,Monday
12,4835389.184356825
745,4584169.148958586
2,1, 1, 1, 0,18, 0.00,60.00,Monday
12,7566965.244352631
745,6467205.8942596479
2,1, 1, 1, 0,19, 0.00,60.00,Monday
12,16735218.956725276
745,8400302.847142326
2,1, 1, 1, 0,20, 0.00,60.00,Monday
12,7015374.919458608
745,8852988.815764083
2,1, 1, 1, 0,21, 0.00,60.00,Monday
12,6537604.686069187
745,9208626.914724919
2,1, 1, 1, 0,22, 0.00,60.00,Monday
12,7012600.871764395
745,10267125.036389545
2,1, 1, 1, 0,23, 0.00,60.00,Monday
12,5064240.950731604
745,11646726.957148605
2,1, 1, 1, 0,24, 0.00,60.00,Monday
12,3656536.544835952
745,14259223.93036823
2,2, 1, 2, 0, 1, 0.00,60.00,Tuesday
12,2753644.116743548
745,15376014.993221824
2,2, 1, 2, 0, 2, 0.00,60.00,Tuesday
12,2448783.9862295298
745,15658033.620971473
2,2, 1, 2, 0, 3, 0.00,60.00,Tuesday
12,2337710.7053336997
745,15892861.664491103
2,2, 1, 2, 0, 4, 0.00,60.00,Tuesday
12,3433253.7656113107
745,17026962.262213246
2,2, 1, 2, 0, 5, 0.00,60.00,Tuesday
12,2206540.3125547978
745,15891642.940474777
2,2, 1, 2, 0, 6, 0.00,60.00,Tuesday
12,2657961.236394977
745,16027405.175392308
2,2, 1, 2, 0, 7, 0.00,60.00,Tuesday
12,3703313.779698813
745,14886301.783075843
2,2, 1, 2, 0, 8, 0.00,60.00,Tuesday
12,5554143.14909012
745,13154659.861991696
2,2, 1, 2, 0, 9, 0.00,60.00,Tuesday
12,4106646.7493375388
745,11938525.75468528
2,2, 1, 2, 0,10, 0.00,60.00,Tuesday
12,5132737.548409049
745,7925192.66586665
2,2, 1, 2, 0,11, 0.00,60.00,Tuesday
12,5623835.179406017
745,4309141.385303977
2,2, 1, 2, 0,12, 0.00,60.00,Tuesday
12,4460450.332531418
745,2433554.541776306
2,2, 1, 2, 0,13, 0.00,60.00,Tuesday
12,3722844.282129281
745,1498111.467066793
2,2, 1, 2, 0,14, 0.00,60.00,Tuesday
12,3736611.6607335836
745,1270736.558194591
2,2, 1, 2, 0,15, 0.00,60.00,Tuesday
12,3621532.992798267
745,0.0
2,2, 1, 2, 0,16, 0.00,60.00,Tuesday
12,5141453.413646712
745,575480.9345816289
2,2, 1, 2, 0,17, 0.00,60.00,Tuesday
12,4771093.6967954779
745,1492082.3424577728
2,2, 1, 2, 0,18, 0.00,60.00,Tuesday
12,7394258.5524789639
745,2422893.372593771
2,2, 1, 2, 0,19, 0.00,60.00,Tuesday
12,7006193.020341579
745,3702195.8075291847
2,2, 1, 2, 0,20, 0.00,60.00,Tuesday
12,6928460.351889585
745,4673109.3581820889
2,2, 1, 2, 0,21, 0.00,60.00,Tuesday
12,6475754.724490355
745,6234149.895664911
2,2, 1, 2, 0,22, 0.00,60.00,Tuesday
12,5747660.072266274
745,6529413.410873752
2,2, 1, 2, 0,23, 0.00,60.00,Tuesday
12,4960510.546322617
745,6658143.355539189
2,2, 1, 2, 0,24, 0.00,60.00,Tuesday
12,9292218.017582054
745,8577075.029994097
2,3, 1, 3, 0, 1, 0.00,60.00,Wednesday
12,3259969.0192363478
745,9875304.33497265
2,3, 1, 3, 0, 2, 0.00,60.00,Wednesday
12,2352711.6955427967
745,11037742.621244437
2,3, 1, 3, 0, 3, 0.00,60.00,Wednesday
12,2254614.470643272
745,11896612.772047388
2,3, 1, 3, 0, 4, 0.00,60.00,Wednesday
12,2212462.7981902898
745,12891542.582014844
2,3, 1, 3, 0, 5, 0.00,60.00,Wednesday
12,2158006.751662241
745,13557575.823164436
2,3, 1, 3, 0, 6, 0.00,60.00,Wednesday
12,3745244.59937408
745,13742925.264880283
2,3, 1, 3, 0, 7, 0.00,60.00,Wednesday
12,3661832.034684618
745,12891369.302835502
2,3, 1, 3, 0, 8, 0.00,60.00,Wednesday
12,4345742.820517171
745,12595512.530338945
2,3, 1, 3, 0, 9, 0.00,60.00,Wednesday
12,4054184.65464753
745,9415528.309839866
2,3, 1, 3, 0,10, 0.00,60.00,Wednesday
12,16530498.882042669
745,7893902.362304871
2,3, 1, 3, 0,11, 0.00,60.00,Wednesday
12,14288926.183526369
745,5046745.516754343
2,3, 1, 3, 0,12, 0.00,60.00,Wednesday
12,4191302.494605448
745,3344440.3730253356
2,3, 1, 3, 0,13, 0.00,60.00,Wednesday
12,3760339.0097023739
745,3301301.035097979
2,3, 1, 3, 0,14, 0.00,60.00,Wednesday
12,3794824.7672389035
745,4070310.609464953
2,3, 1, 3, 0,15, 0.00,60.00,Wednesday
12,5002858.735170571
745,3139819.41939767
2,3, 1, 3, 0,16, 0.00,60.00,Wednesday
12,4043542.46940825
745,5027636.684873648
2,3, 1, 3, 0,17, 0.00,60.00,Wednesday
12,4883058.781220409
745,6876686.666497565
2,3, 1, 3, 0,18, 0.00,60.00,Wednesday
12,6336487.3121303799
745,8041638.421954722
2,3, 1, 3, 0,19, 0.00,60.00,Wednesday
12,8319592.91750711
745,8126697.183793534
2,3, 1, 3, 0,20, 0.00,60.00,Wednesday
12,17418331.97514285
745,8785410.896280637
2,3, 1, 3, 0,21, 0.00,60.00,Wednesday
12,6959555.528105415
745,11152660.55422613
2,3, 1, 3, 0,22, 0.00,60.00,Wednesday
12,5881854.853177962
745,12983084.225056112
2,3, 1, 3, 0,23, 0.00,60.00,Wednesday
12,5136607.3760578
745,15126959.823743638
2,3, 1, 3, 0,24, 0.00,60.00,Wednesday
12,4892211.575656312
745,17128775.59951317
2,4, 1, 4, 0, 1, 0.00,60.00,Thursday
12,2826301.8851684255
745,18870259.07873389
2,4, 1, 4, 0, 2, 0.00,60.00,Thursday
12,3749121.853118362
745,21552980.00395178
2,4, 1, 4, 0, 3, 0.00,60.00,Thursday
12,2476827.7346813108
745,22583252.348516816
2,4, 1, 4, 0, 4, 0.00,60.00,Thursday
12,2415599.11576528
745,22660737.144782038
2,4, 1, 4, 0, 5, 0.00,60.00,Thursday
12,2352038.2334720978
745,22888902.292655816
2,4, 1, 4, 0, 6, 0.00,60.00,Thursday
12,3928999.809707783
745,22578726.535994367
2,4, 1, 4, 0, 7, 0.00,60.00,Thursday
12,3837530.015434979
745,21341004.398745717
2,4, 1, 4, 0, 8, 0.00,60.00,Thursday
12,5397465.698120099
745,18681778.236737275
2,4, 1, 4, 0, 9, 0.00,60.00,Thursday
12,15595204.667613639
745,16999718.74346241
2,4, 1, 4, 0,10, 0.00,60.00,Thursday
12,5560538.386822918
745,13416703.415096883
2,4, 1, 4, 0,11, 0.00,60.00,Thursday
12,5118874.93731231
745,11393842.555566395
2,4, 1, 4, 0,12, 0.00,60.00,Thursday
12,9084654.56507203
745,10603408.598657243
2,4, 1, 4, 0,13, 0.00,60.00,Thursday
12,3871008.273466762
745,8623586.989372937
2,4, 1, 4, 0,14, 0.00,60.00,Thursday
12,3866758.8467028227
745,7529751.178073077
2,4, 1, 4, 0,15, 0.00,60.00,Thursday
12,4946003.946617011
745,6293657.730933286
2,4, 1, 4, 0,16, 0.00,60.00,Thursday
12,4750095.652861764
745,6863688.100414371
2,4, 1, 4, 0,17, 0.00,60.00,Thursday
12,5187020.099722885
745,6273466.375409926
2,4, 1, 4, 0,18, 0.00,60.00,Thursday
12,6288812.757655454
745,5748882.48387949
2,4, 1, 4, 0,19, 0.00,60.00,Thursday
12,7043159.78604249
745,5479994.72994545
2,4, 1, 4, 0,20, 0.00,60.00,Thursday
12,9624480.405942884
745,4974667.888174471
2,4, 1, 4, 0,21, 0.00,60.00,Thursday
12,7594536.259229839
745,5463585.444127195
2,4, 1, 4, 0,22, 0.00,60.00,Thursday
12,5732590.549020313
745,5804692.660220207
2,4, 1, 4, 0,23, 0.00,60.00,Thursday
12,6191086.844363302
745,6580279.622373016
2,4, 1, 4, 0,24, 0.00,60.00,Thursday
12,3306288.640389811
745,6071692.905426001
2,5, 1, 5, 0, 1, 0.00,60.00,Friday
12,2601363.3692471559
745,8052557.1880625509
2,5, 1, 5, 0, 2, 0.00,60.00,Friday
12,2082697.5164278034
745,6708797.213156502
2,5, 1, 5, 0, 3, 0.00,60.00,Friday
12,2279888.066913865
745,6649316.106882769
2,5, 1, 5, 0, 4, 0.00,60.00,Friday
12,2910951.463694804
745,7033799.190162648
2,5, 1, 5, 0, 5, 0.00,60.00,Friday
12,2020202.898307004
745,6930338.158341812
2,5, 1, 5, 0, 6, 0.00,60.00,Friday
12,6358386.580317595
745,6682917.626425388
2,5, 1, 5, 0, 7, 0.00,60.00,Friday
12,13900546.862635306
745,8494444.261813814
2,5, 1, 5, 0, 8, 0.00,60.00,Friday
12,4153281.9072520809
745,4813249.19746299
2,5, 1, 5, 0, 9, 0.00,60.00,Friday
12,3912656.311149595
745,2609173.147538238
2,5, 1, 5, 0,10, 0.00,60.00,Friday
12,3506103.5389876689
745,0.0
2,5, 1, 5, 0,11, 0.00,60.00,Friday
12,20389031.33434067
745,0.0
2,5, 1, 5, 0,12, 0.00,60.00,Friday
12,15360742.780905555
745,0.0
2,5, 1, 5, 0,13, 0.00,60.00,Friday
12,4815006.585443419
745,0.0
2,5, 1, 5, 0,14, 0.00,60.00,Friday
12,4713777.695638459
745,0.0
2,5, 1, 5, 0,15, 0.00,60.00,Friday
12,3621532.992798267
745,0.0
2,5, 1, 5, 0,16, 0.00,60.00,Friday
12,3939000.012432055
745,0.0
2,5, 1, 5, 0,17, 0.00,60.00,Friday
12,4740067.995483241
745,0.0
2,5, 1, 5, 0,18, 0.00,60.00,Friday
12,8732512.855201807
745,0.0
2,5, 1, 5, 0,19, 0.00,60.00,Friday
12,6929211.195642407
745,0.0
2,5, 1, 5, 0,20, 0.00,60.00,Friday
12,9759597.892253785
745,0.0
2,5, 1, 5, 0,21, 0.00,60.00,Friday
12,7737493.844434029
745,1330399.7544089002
2,5, 1, 5, 0,22, 0.00,60.00,Friday
12,8851717.170043208
745,2989461.1492859849
2,5, 1, 5, 0,23, 0.00,60.00,Friday
12,4902249.856021791
745,3856280.9130944518
2,5, 1, 5, 0,24, 0.00,60.00,Friday
12,3477548.3198873309
745,5651355.01336911
2,6, 1, 6, 0, 1, 0.00,60.00,Saturday
12,2580633.255565446
745,7055608.359401497
2,6, 1, 6, 0, 2, 0.00,60.00,Saturday
12,4994184.979184622
745,7858536.657769277
2,6, 1, 6, 0, 3, 0.00,60.00,Saturday
12,3322261.261213307
745,8667905.781075975
2,6, 1, 6, 0, 4, 0.00,60.00,Saturday
12,2149305.023344624
745,9854170.446965797
2,6, 1, 6, 0, 5, 0.00,60.00,Saturday
12,2096952.2003516395
745,10621351.528975739
2,6, 1, 6, 0, 6, 0.00,60.00,Saturday
12,18030277.412998015
745,11932844.586420495
2,6, 1, 6, 0, 7, 0.00,60.00,Saturday
12,6151989.917109764
745,11403137.273647579
2,6, 1, 6, 0, 8, 0.00,60.00,Saturday
12,4318762.018757325
745,11297956.755980246
2,6, 1, 6, 0, 9, 0.00,60.00,Saturday
12,4040712.976607735
745,8767650.838057222
2,6, 1, 6, 0,10, 0.00,60.00,Saturday
12,6464402.477344121
745,7032810.562433948
2,6, 1, 6, 0,11, 0.00,60.00,Saturday
12,3849257.325322304
745,5032023.309611051
2,6, 1, 6, 0,12, 0.00,60.00,Saturday
12,6042380.906264344
745,3237637.397096042
2,6, 1, 6, 0,13, 0.00,60.00,Saturday
12,11349726.015034832
745,3005531.7846288706
2,6, 1, 6, 0,14, 0.00,60.00,Saturday
12,6349492.10099429
745,2880355.98260758
2,6, 1, 6, 0,15, 0.00,60.00,Saturday
12,3843888.6062233198
745,2036958.3997304855
2,6, 1, 6, 0,16, 0.00,60.00,Saturday
12,5177329.9866138719
745,1996935.6106309435
2,6, 1, 6, 0,17, 0.00,60.00,Saturday
12,4842359.887252968
745,4919402.915350567
2,6, 1, 6, 0,18, 0.00,60.00,Saturday
12,8881878.361901775
745,5612422.866129718
2,6, 1, 6, 0,19, 0.00,60.00,Saturday
12,12079985.609154653
745,6665010.6322391009
2,6, 1, 6, 0,20, 0.00,60.00,Saturday
12,8227517.56812896
745,7859862.860952909
2,6, 1, 6, 0,21, 0.00,60.00,Saturday
12,10647766.828090933
745,8619462.939511745
2,6, 1, 6, 0,22, 0.00,60.00,Saturday
12,24954930.35856109
745,11017539.710370219
2,6, 1, 6, 0,23, 0.00,60.00,Saturday
12,7580292.947775625
745,12208429.014731739
2,6, 1, 6, 0,24, 0.00,60.00,Saturday
12,4799778.231805669
745,14386123.136149286
2,7, 1, 7, 0, 1, 0.00,60.00,Sunday
12,2765976.1590534935
745,15969085.31230774
2,7, 1, 7, 0, 2, 0.00,60.00,Sunday
12,2460977.980740479
745,16244464.970603493
2,7, 1, 7, 0, 3, 0.00,60.00,Sunday
12,2391566.370040521
745,18482878.423231774
2,7, 1, 7, 0, 4, 0.00,60.00,Sunday
12,5209791.325384335
745,19890811.13633299
2,7, 1, 7, 0, 5, 0.00,60.00,Sunday
12,15472638.188040197
745,21961697.91002211
2,7, 1, 7, 0, 6, 0.00,60.00,Sunday
12,3002460.611394669
745,21409735.087030889
2,7, 1, 7, 0, 7, 0.00,60.00,Sunday
12,9077438.742483382
745,21480819.569577058
2,7, 1, 7, 0, 8, 0.00,60.00,Sunday
12,5589753.074789355
745,15959692.951102457
2,7, 1, 7, 0, 9, 0.00,60.00,Sunday
12,4170376.827636615
745,15003421.002548693
2,7, 1, 7, 0,10, 0.00,60.00,Sunday
12,8176758.867321791
745,13856238.860347584
2,7, 1, 7, 0,11, 0.00,60.00,Sunday
12,4249163.325564939
745,12290309.74935006
2,7, 1, 7, 0,12, 0.00,60.00,Sunday
12,4017538.51140548
745,10796268.818878523
2,7, 1, 7, 0,13, 0.00,60.00,Sunday
12,5307021.811439356
745,9986301.595380184
2,7, 1, 7, 0,14, 0.00,60.00,Sunday
12,3925184.0040710179
745,9704467.34585335
2,7, 1, 7, 0,15, 0.00,60.00,Sunday
12,3997718.8356883057
745,9434933.607801242
2,7, 1, 7, 0,16, 0.00,60.00,Sunday
12,4134034.3149321374
745,9379553.93837204
2,7, 1, 7, 0,17, 0.00,60.00,Sunday
12,11401677.548679542
745,9209329.685912015
2,7, 1, 7, 0,18, 0.00,60.00,Sunday
12,9529200.157854068
745,7952887.562702368
2,7, 1, 7, 0,19, 0.00,60.00,Sunday
12,7075620.57331403
745,7041092.963397478
2,7, 1, 7, 0,20, 0.00,60.00,Sunday
12,6980734.5618189279
745,7187071.0835449569
2,7, 1, 7, 0,21, 0.00,60.00,Sunday
12,6518999.503843069
745,8313869.900260529
2,7, 1, 7, 0,22, 0.00,60.00,Sunday
12,7035051.827899325
745,9614790.268652533
2,7, 1, 7, 0,23, 0.00,60.00,Sunday
12,6170207.2250499729
745,10104489.654374727
2,7, 1, 7, 0,24, 0.00,60.00,Sunday
12,3566144.413300945
745,9912102.10375179
2,8, 1, 8, 0, 1, 0.00,60.00,Monday
12,2654778.451932992
745,10621385.55698084
2,8, 1, 8, 0, 2, 0.00,60.00,Monday
12,3495152.6584522079
745,11402097.962750296
2,8, 1, 8, 0, 3, 0.00,60.00,Monday
12,2269976.704077338
745,12635410.487431944
2,8, 1, 8, 0, 4, 0.00,60.00,Monday
12,2266251.076948807
745,15478318.628077273
2,8, 1, 8, 0, 5, 0.00,60.00,Monday
12,2206163.8699736569
745,15873539.132840699
2,8, 1, 8, 0, 6, 0.00,60.00,Monday
12,2631938.5377700456
745,14775926.321438164
2,8, 1, 8, 0, 7, 0.00,60.00,Monday
12,3711079.9161531317
745,15259789.394394929
2,8, 1, 8, 0, 8, 0.00,60.00,Monday
12,5514889.454282299
745,13016916.894116221
2,8, 1, 8, 0, 9, 0.00,60.00,Monday
12,10455449.587275122
745,8560473.807336078
2,8, 1, 8, 0,10, 0.00,60.00,Monday
12,3792872.9857402576
745,5134736.669133498
2,8, 1, 8, 0,11, 0.00,60.00,Monday
12,3822396.954216514
745,3740259.264199905
2,8, 1, 8, 0,12, 0.00,60.00,Monday
12,4990094.8125468869
745,2305636.198287395
2,8, 1, 8, 0,13, 0.00,60.00,Monday
12,4747419.599519314
745,203836.20174913773
2,8, 1, 8, 0,14, 0.00,60.00,Monday
12,3530188.525911049
745,0.0
2,8, 1, 8, 0,15, 0.00,60.00,Monday
12,4991500.925106449
745,0.0
2,8, 1, 8, 0,16, 0.00,60.00,Monday
12,5453564.294295195
745,0.0
2,8, 1, 8, 0,17, 0.00,60.00,Monday
12,4740067.995483241
745,0.0
2,8, 1, 8, 0,18, 0.00,60.00,Monday
12,7468740.770194863
745,1694024.5015080183
2,8, 1, 8, 0,19, 0.00,60.00,Monday
12,16748807.802277729
745,3901347.204243037
2,8, 1, 8, 0,20, 0.00,60.00,Monday
12,6935774.464941302
745,5024858.342850545
2,8, 1, 8, 0,21, 0.00,60.00,Monday
12,6455223.853191109
745,5246782.995152787
2,8, 1, 8, 0,22, 0.00,60.00,Monday
12,6942274.212708171
745,6862536.802946761
2,8, 1, 8, 0,23, 0.00,60.00,Monday
12,4975119.028390777
745,7360691.798349615
2,8, 1, 8, 0,24, 0.00,60.00,Monday
12,3565095.0616544059
745,9861636.876646262
2,9, 1, 9, 0, 1, 0.00,60.00,Tuesday
12,2678074.266899107
745,11741723.621680625
2,9, 1, 9, 0, 2, 0.00,60.00,Tuesday
12,2384732.5164168688
745,12577682.07132749
2,9, 1, 9, 0, 3, 0.00,60.00,Tuesday
12,2285440.9916745696
745,13379116.172931401
2,9, 1, 9, 0, 4, 0.00,60.00,Tuesday
12,2236168.576914792
745,14031596.548662536
2,9, 1, 9, 0, 5, 0.00,60.00,Tuesday
12,3311409.243781739
745,14450914.90642022
2,9, 1, 9, 0, 6, 0.00,60.00,Tuesday
12,2630426.403566238
745,14703205.04038729
2,9, 1, 9, 0, 7, 0.00,60.00,Tuesday
12,3695728.3160744665
745,14521503.056389878
2,9, 1, 9, 0, 8, 0.00,60.00,Tuesday
12,5533260.775044953
745,12119592.00995314
2,9, 1, 9, 0, 9, 0.00,60.00,Tuesday
12,4034765.993675188
745,8481649.62457132
2,9, 1, 9, 0,10, 0.00,60.00,Tuesday
12,5097203.724234762
745,6137756.036400772
2,9, 1, 9, 0,11, 0.00,60.00,Tuesday
12,5064806.974301679
745,4319276.858287238
2,9, 1, 9, 0,12, 0.00,60.00,Tuesday
12,4994061.113447895
745,3181448.224877151
2,9, 1, 9, 0,13, 0.00,60.00,Tuesday
12,3744540.976371267
745,2541544.9109194895
2,9, 1, 9, 0,14, 0.00,60.00,Tuesday
12,3744466.8936205899
745,1648508.978828757
2,9, 1, 9, 0,15, 0.00,60.00,Tuesday
12,3804166.8720671187
745,126668.03917399486
2,9, 1, 9, 0,16, 0.00,60.00,Tuesday
12,5130136.1717387349
745,0.0
2,9, 1, 9, 0,17, 0.00,60.00,Tuesday
12,4778570.0586671889
745,1851634.1676474652
2,9, 1, 9, 0,18, 0.00,60.00,Tuesday
12,7422728.598359059
745,3769729.895436105
2,9, 1, 9, 0,19, 0.00,60.00,Tuesday
12,7023935.801260713
745,4555478.376361725
2,9, 1, 9, 0,20, 0.00,60.00,Tuesday
12,6931879.697130593
745,4837551.882962716
2,9, 1, 9, 0,21, 0.00,60.00,Tuesday
12,6484975.995358138
745,6677617.564562166
2,9, 1, 9, 0,22, 0.00,60.00,Tuesday
12,5775856.689569721
745,7885439.963573113
2,9, 1, 9, 0,23, 0.00,60.00,Tuesday
12,5017585.246718488
745,9402969.38879182
2,9, 1, 9, 0,24, 0.00,60.00,Tuesday
12,9489943.677471135
745,12050297.230416879
2,10, 1,10, 0, 1, 0.00,60.00,Wednesday
12,3262182.0645911868
745,13091248.122030095
2,10, 1,10, 0, 2, 0.00,60.00,Wednesday
12,2417481.038139253
745,14152617.977265979
2,10, 1,10, 0, 3, 0.00,60.00,Wednesday
12,2310222.56329333
745,14570906.974324899
2,10, 1,10, 0, 4, 0.00,60.00,Wednesday
12,2277082.316389219
745,15999212.610563891
2,10, 1,10, 0, 5, 0.00,60.00,Wednesday
12,2222083.8403498206
745,16639159.431046699
2,10, 1,10, 0, 6, 0.00,60.00,Wednesday
12,3813629.974440151
745,17031527.523493608
2,10, 1,10, 0, 7, 0.00,60.00,Wednesday
12,3726724.228899215
745,16012152.81636574
2,10, 1,10, 0, 8, 0.00,60.00,Wednesday
12,4388882.750460885
745,14670190.13636925
2,10, 1,10, 0, 9, 0.00,60.00,Wednesday
12,4070806.026653717
745,10214880.28671434
2,10, 1,10, 0,10, 0.00,60.00,Wednesday
12,17314394.093596337
745,7609176.057735749
2,10, 1,10, 0,11, 0.00,60.00,Wednesday
12,13351851.761798466
745,4969994.6001358679
2,10, 1,10, 0,12, 0.00,60.00,Wednesday
12,4634711.094779337
745,2105395.000652168
2,10, 1,10, 0,13, 0.00,60.00,Wednesday
12,3694455.784974311
745,132857.06370740263
2,10, 1,10, 0,14, 0.00,60.00,Wednesday
12,3710188.525911049
745,0.0
2,10, 1,10, 0,15, 0.00,60.00,Wednesday
12,4937554.867328301
745,0.0
2,10, 1,10, 0,16, 0.00,60.00,Wednesday
12,3939000.012432055
745,0.0
2,10, 1,10, 0,17, 0.00,60.00,Wednesday
12,4740067.995483241
745,0.0
2,10, 1,10, 0,18, 0.00,60.00,Wednesday
12,6206439.062817157
745,1787381.8456085649
2,10, 1,10, 0,19, 0.00,60.00,Wednesday
12,8225264.928666495
745,3532931.2929684238
2,10, 1,10, 0,20, 0.00,60.00,Wednesday
12,17408421.354659484
745,3992151.2027163815
2,10, 1,10, 0,21, 0.00,60.00,Wednesday
12,6803668.819809575
745,5108446.342700086
2,10, 1,10, 0,22, 0.00,60.00,Wednesday
12,5764009.207478298
745,7315673.025727149
2,10, 1,10, 0,23, 0.00,60.00,Wednesday
12,5006770.428933489
745,8882865.153548273
2,10, 1,10, 0,24, 0.00,60.00,Wednesday
12,4790395.685254749
745,12205690.272820268
2,11, 1,11, 0, 1, 0.00,60.00,Thursday
12,2706666.408627332
745,13116771.662541794
2,11, 1,11, 0, 2, 0.00,60.00,Thursday
12,3603692.254193735
745,14532218.657467612
2,11, 1,11, 0, 3, 0.00,60.00,Thursday
12,2314256.3480254795
745,14764899.010525614
2,11, 1,11, 0, 4, 0.00,60.00,Thursday
12,2272997.733911419
745,15802777.618487344
2,11, 1,11, 0, 5, 0.00,60.00,Thursday
12,2216563.9842095945
745,16373699.520991745
2,11, 1,11, 0, 6, 0.00,60.00,Thursday
12,3788206.81895095
745,15806784.119304518
2,11, 1,11, 0, 7, 0.00,60.00,Thursday
12,3713885.9814484065
745,15394738.17240086
2,11, 1,11, 0, 8, 0.00,60.00,Thursday
12,5586435.140570678
745,14549536.917359548
2,11, 1,11, 0, 9, 0.00,60.00,Thursday
12,15604355.822779788
745,13103855.764903723
2,11, 1,11, 0,10, 0.00,60.00,Thursday
12,5272690.407764484
745,8094283.746794545
2,11, 1,11, 0,11, 0.00,60.00,Thursday
12,4942141.765114747
745,4479337.400976918
2,11, 1,11, 0,12, 0.00,60.00,Thursday
12,8946608.439143144
745,2433861.7348356104
2,11, 1,11, 0,13, 0.00,60.00,Thursday
12,3527286.9786451107
745,749932.478576585
2,11, 1,11, 0,14, 0.00,60.00,Thursday
12,3530188.525911049
745,0.0
2,11, 1,11, 0,15, 0.00,60.00,Thursday
12,4815918.84567755
745,0.0
2,11, 1,11, 0,16, 0.00,60.00,Thursday
12,4951868.348816457
745,736704.2493812906
2,11, 1,11, 0,17, 0.00,60.00,Thursday
12,4773243.341106399
745,1595462.6427646545
2,11, 1,11, 0,18, 0.00,60.00,Thursday
12,6203950.868746474
745,1667720.072290022
2,11, 1,11, 0,19, 0.00,60.00,Thursday
12,8101597.981118169
745,1577891.2046858874
2,11, 1,11, 0,20, 0.00,60.00,Thursday
12,9582417.523299067
745,2721912.652642686
2,11, 1,11, 0,21, 0.00,60.00,Thursday
12,6419012.108541684
745,3505294.4067969236
2,11, 1,11, 0,22, 0.00,60.00,Thursday
12,5685187.300581392
745,3524984.3223152959
2,11, 1,11, 0,23, 0.00,60.00,Thursday
12,6157175.892366627
745,4876824.734288602
2,11, 1,11, 0,24, 0.00,60.00,Thursday
12,3488705.623934037
745,6187930.035154579
2,12, 1,12, 0, 1, 0.00,60.00,Friday
12,2592540.465753805
745,7628247.729940948
2,12, 1,12, 0, 2, 0.00,60.00,Friday
12,3452674.480826434
745,9363038.697933604
2,12, 1,12, 0, 3, 0.00,60.00,Friday
12,2224216.7489337699
745,10434731.10957531
2,12, 1,12, 0, 4, 0.00,60.00,Friday
12,2201716.491003652
745,12374733.145914026
2,12, 1,12, 0, 5, 0.00,60.00,Friday
12,2159458.2377073967
745,13627380.424082403
2,12, 1,12, 0, 6, 0.00,60.00,Friday
12,7170706.594960066
745,14213896.090045035
2,12, 1,12, 0, 7, 0.00,60.00,Friday
12,13370310.989953103
745,15162774.70476209
2,12, 1,12, 0, 8, 0.00,60.00,Friday
12,4373807.990401338
745,13945217.537836303
2,12, 1,12, 0, 9, 0.00,60.00,Friday
12,4119618.4198782627
745,12562356.95744234
2,12, 1,12, 0,10, 0.00,60.00,Friday
12,3921634.946713746
745,11327133.302340528
2,12, 1,12, 0,11, 0.00,60.00,Friday
12,20976181.489719698
745,10522152.451635242
2,12, 1,12, 0,12, 0.00,60.00,Friday
12,15932225.594190285
745,8247181.202547334
2,12, 1,12, 0,13, 0.00,60.00,Friday
12,5163658.119836302
745,7978081.489972338
2,12, 1,12, 0,14, 0.00,60.00,Friday
12,5049762.757782124
745,7459043.165945968
2,12, 1,12, 0,15, 0.00,60.00,Friday
12,3950735.5874252805
745,7175423.841395997
2,12, 1,12, 0,16, 0.00,60.00,Friday
12,4082005.0347944574
745,6877371.331669638
2,12, 1,12, 0,17, 0.00,60.00,Friday
12,6045161.826125747
745,8190584.71440919
2,12, 1,12, 0,18, 0.00,60.00,Friday
12,7626625.188450782
745,8382507.595018194
2,12, 1,12, 0,19, 0.00,60.00,Friday
12,8257386.745872639
745,7622823.948373412
2,12, 1,12, 0,20, 0.00,60.00,Friday
12,8649111.741835893
745,7442959.108943804
2,12, 1,12, 0,21, 0.00,60.00,Friday
12,7897185.166775726
745,8948290.345318078
2,12, 1,12, 0,22, 0.00,60.00,Friday
12,9000428.046499176
745,9940018.953075029
2,12, 1,12, 0,23, 0.00,60.00,Friday
12,5048154.722565685
745,10873111.019782236
2,12, 1,12, 0,24, 0.00,60.00,Friday
12,4737879.755182786
745,11686057.291866467
2,13, 1,13, 0, 1, 0.00,60.00,Saturday
12,2675284.650901505
745,11607565.920284246
2,13, 1,13, 0, 2, 0.00,60.00,Saturday
12,5063378.350321389
745,10923128.366212868
2,13, 1,13, 0, 3, 0.00,60.00,Saturday
12,2246280.246515898
745,11495804.792450296
2,13, 1,13, 0, 4, 0.00,60.00,Saturday
12,2180041.578931846
745,11332347.24619833
2,13, 1,13, 0, 5, 0.00,60.00,Saturday
12,2110248.0695163996
745,11260774.032554826
2,13, 1,13, 0, 6, 0.00,60.00,Saturday
12,18403087.07159129
745,12480769.189247875
2,13, 1,13, 0, 7, 0.00,60.00,Saturday
12,6412421.77095999
745,11601617.743427383
2,13, 1,13, 0, 8, 0.00,60.00,Saturday
12,4279563.14779455
745,9412811.836314235
2,13, 1,13, 0, 9, 0.00,60.00,Saturday
12,3960488.016417477
745,4909486.752752493
2,13, 1,13, 0,10, 0.00,60.00,Saturday
12,6368618.019867451
745,2180561.9698363596
2,13, 1,13, 0,11, 0.00,60.00,Saturday
12,3755526.054488091
745,524316.2076704233
2,13, 1,13, 0,12, 0.00,60.00,Saturday
12,5976266.471301947
745,0.0
2,13, 1,13, 0,13, 0.00,60.00,Saturday
12,11306953.871088887
745,0.0
2,13, 1,13, 0,14, 0.00,60.00,Saturday
12,6150911.795126089
745,0.0
2,13, 1,13, 0,15, 0.00,60.00,Saturday
12,3801532.992798267
745,0.0
2,13, 1,13, 0,16, 0.00,60.00,Saturday
12,5136322.161204607
745,0.0
2,13, 1,13, 0,17, 0.00,60.00,Saturday
12,4740067.995483241
745,0.0
2,13, 1,13, 0,18, 0.00,60.00,Saturday
12,8768875.239369486
745,0.0
2,13, 1,13, 0,19, 0.00,60.00,Saturday
12,11968891.464650803
745,0.0
2,13, 1,13, 0,20, 0.00,60.00,Saturday
12,8065287.2240225239
745,0.0
2,13, 1,13, 0,21, 0.00,60.00,Saturday
12,10472528.787472854
745,0.0
2,13, 1,13, 0,22, 0.00,60.00,Saturday
12,24840927.07444136
745,571871.1181852797
2,13, 1,13, 0,23, 0.00,60.00,Saturday
12,7581871.086044134
745,3171161.2188953768
2,13, 1,13, 0,24, 0.00,60.00,Saturday
12,4584606.814173732
745,4034640.3528126629
2,14, 1,14, 0, 1, 0.00,60.00,Sunday
12,2525023.559820433
745,4381237.061375183
2,14, 1,14, 0, 2, 0.00,60.00,Sunday
12,2215112.3402129968
745,4420339.637989543
2,14, 1,14, 0, 3, 0.00,60.00,Sunday
12,2117572.9563274525
745,5306037.3766198479
2,14, 1,14, 0, 4, 0.00,60.00,Sunday
12,4931745.104504952
745,6103112.551172434
2,14, 1,14, 0, 5, 0.00,60.00,Sunday
12,15241508.988321003
745,7344739.831226344
2,14, 1,14, 0, 6, 0.00,60.00,Sunday
12,2797123.0188876918
745,6865861.021944311
2,14, 1,14, 0, 7, 0.00,60.00,Sunday
12,8816186.303486128
745,7330818.451655999
2,14, 1,14, 0, 8, 0.00,60.00,Sunday
12,5396333.563891753
745,6635221.354162378
2,14, 1,14, 0, 9, 0.00,60.00,Sunday
12,3950584.969348758
745,4433231.227726353
2,14, 1,14, 0,10, 0.00,60.00,Sunday
12,8038337.961920287
745,2746560.3320996428
2,14, 1,14, 0,11, 0.00,60.00,Sunday
12,3638276.433796064
745,736724.3943957873
2,14, 1,14, 0,12, 0.00,60.00,Sunday
12,3613045.6653140357
745,0.0
2,14, 1,14, 0,13, 0.00,60.00,Sunday
12,4920367.379775468
745,0.0
2,14, 1,14, 0,14, 0.00,60.00,Sunday
12,3543393.595660419
745,0.0
2,14, 1,14, 0,15, 0.00,60.00,Sunday
12,3621532.992798267
745,0.0
2,14, 1,14, 0,16, 0.00,60.00,Sunday
12,3759000.012432055
745,0.0
2,14, 1,14, 0,17, 0.00,60.00,Sunday
12,11161681.637481323
745,0.0
2,14, 1,14, 0,18, 0.00,60.00,Sunday
12,9297613.261243318
745,0.0
2,14, 1,14, 0,19, 0.00,60.00,Sunday
12,6932895.622480635
745,177190.78038142905
2,14, 1,14, 0,20, 0.00,60.00,Sunday
12,6861224.780748668
745,1439628.5909041567
2,14, 1,14, 0,21, 0.00,60.00,Sunday
12,6411503.247655624
745,3144179.6449641368
2,14, 1,14, 0,22, 0.00,60.00,Sunday
12,6930948.593188252
745,4551571.639296802
2,14, 1,14, 0,23, 0.00,60.00,Sunday
12,6076675.7025989
745,5602719.28302752
2,14, 1,14, 0,24, 0.00,60.00,Sunday
12,3521112.2851901899
745,7746425.250192508
2,15, 1,15, 0, 1, 0.00,60.00,Monday
12,3752705.761283489
745,8847253.518726306
2,15, 1,15, 0, 2, 0.00,60.00,Monday
12,2333553.4213583499
745,10116386.409666915
2,15, 1,15, 0, 3, 0.00,60.00,Monday
12,2233268.590692664
745,10870050.624813522
2,15, 1,15, 0, 4, 0.00,60.00,Monday
12,2192410.6208262706
745,11927196.942521282
2,15, 1,15, 0, 5, 0.00,60.00,Monday
12,2135773.96321478
745,12488360.635014212
2,15, 1,15, 0, 6, 0.00,60.00,Monday
12,2581685.2067091607
745,12359152.332317776
2,15, 1,15, 0, 7, 0.00,60.00,Monday
12,3671227.46768706
745,13343212.745199858
2,15, 1,15, 0, 8, 0.00,60.00,Monday
12,5484599.53110701
745,11543989.463627506
2,15, 1,15, 0, 9, 0.00,60.00,Monday
12,10422855.134898726
745,6010890.547086613
2,15, 1,15, 0,10, 0.00,60.00,Monday
12,3738545.423897212
745,2522025.5197864545
2,15, 1,15, 0,11, 0.00,60.00,Monday
12,3573267.317810825
745,415689.4572710262
2,15, 1,15, 0,12, 0.00,60.00,Monday
12,4762344.807139391
745,0.0