Program Version,EnergyPlus, Version 9.2.0-921312fa1d, YMD=2019.12.18 17:26
1,5,Environment Title[],Latitude[deg],Longitude[deg],Time Zone[],Elevation[m]
2,8,Day of Simulation[],Month[],Day of Month[],DST Indicator[1=yes 0=no],Hour[],StartMinute[],EndMinute[],DayType
3,5,Cumulative Day of Simulation[],Month[],Day of Month[],DST Indicator[1=yes 0=no],DayType  ! When Daily Report Variables Requested
4,2,Cumulative Days of Simulation[],Month[]  ! When Monthly Report Variables Requested
5,1,Cumulative Days of Simulation[] ! When Run Period Report Variables Requested
6,1,Calendar Year of Simulation[] ! When Annual Report Variables Requested
307,9,EMS,central ac supply fan clg disaggregate [J] !Monthly [Value,Min,Day,Hour,Minute,Max,Day,Hour,Minute]
308,11,EMS,central ac supply fan clg disaggregate [J] !RunPeriod [Value,Min,Month,Day,Hour,Minute,Max,Month,Day,Hour,Minute]
309,11,EMS,clg_ceilings_outvar [J] !RunPeriod [Value,Min,Month,Day,Hour,Minute,Max,Month,Day,Hour,Minute]
310,11,EMS,clg_doors_outvar [J] !RunPeriod [Value,Min,Month,Day,Hour,Minute,Max,Month,Day,Hour,Minute]
311,11,EMS,clg_ducts_outvar [J] !RunPeriod [Value,Min,Month,Day,Hour,Minute,Max,Month,Day,Hour,Minute]
312,11,EMS,clg_floors_outvar [J] !RunPeriod [Value,Min,Month,Day,Hour,Minute,Max,Month,Day,Hour,Minute]
313,11,EMS,clg_foundation_walls_outvar [J] !RunPeriod [Value,Min,Month,Day,Hour,Minute,Max,Month,Day,Hour,Minute]
314,11,EMS,clg_infil_outvar [J] !RunPeriod [Value,Min,Month,Day,Hour,Minute,Max,Month,Day,Hour,Minute]
315,11,EMS,clg_internal_mass_outvar [J] !RunPeriod [Value,Min,Month,Day,Hour,Minute,Max,Month,Day,Hour,Minute]
316,11,EMS,clg_intgains_outvar [J] !RunPeriod [Value,Min,Month,Day,Hour,Minute,Max,Month,Day,Hour,Minute]
317,11,EMS,clg_mechvent_outvar [J] !RunPeriod [Value,Min,Month,Day,Hour,Minute,Max,Month,Day,Hour,Minute]
318,11,EMS,clg_natvent_outvar [J] !RunPeriod [Value,Min,Month,Day,Hour,Minute,Max,Month,Day,Hour,Minute]
319,11,EMS,clg_rim_joists_outvar [J] !RunPeriod [Value,Min,Month,Day,Hour,Minute,Max,Month,Day,Hour,Minute]
320,11,EMS,clg_roofs_outvar [J] !RunPeriod [Value,Min,Month,Day,Hour,Minute,Max,Month,Day,Hour,Minute]
321,11,EMS,clg_skylights_outvar [J] !RunPeriod [Value,Min,Month,Day,Hour,Minute,Max,Month,Day,Hour,Minute]
322,11,EMS,clg_slabs_outvar [J] !RunPeriod [Value,Min,Month,Day,Hour,Minute,Max,Month,Day,Hour,Minute]
323,11,EMS,clg_walls_outvar [J] !RunPeriod [Value,Min,Month,Day,Hour,Minute,Max,Month,Day,Hour,Minute]
324,11,EMS,clg_windows_outvar [J] !RunPeriod [Value,Min,Month,Day,Hour,Minute,Max,Month,Day,Hour,Minute]
325,11,EMS,furnace supply fan htg primary disaggregate [J] !RunPeriod [Value,Min,Month,Day,Hour,Minute,Max,Month,Day,Hour,Minute]
326,9,EMS,furnace supply fan htg primary disaggregate [J] !Monthly [Value,Min,Day,Hour,Minute,Max,Day,Hour,Minute]
327,11,EMS,htg_ceilings_outvar [J] !RunPeriod [Value,Min,Month,Day,Hour,Minute,Max,Month,Day,Hour,Minute]
328,11,EMS,htg_doors_outvar [J] !RunPeriod [Value,Min,Month,Day,Hour,Minute,Max,Month,Day,Hour,Minute]
329,11,EMS,htg_ducts_outvar [J] !RunPeriod [Value,Min,Month,Day,Hour,Minute,Max,Month,Day,Hour,Minute]
330,11,EMS,htg_floors_outvar [J] !RunPeriod [Value,Min,Month,Day,Hour,Minute,Max,Month,Day,Hour,Minute]
331,11,EMS,htg_foundation_walls_outvar [J] !RunPeriod [Value,Min,Month,Day,Hour,Minute,Max,Month,Day,Hour,Minute]
332,11,EMS,htg_infil_outvar [J] !RunPeriod [Value,Min,Month,Day,Hour,Minute,Max,Month,Day,Hour,Minute]
333,11,EMS,htg_internal_mass_outvar [J] !RunPeriod [Value,Min,Month,Day,Hour,Minute,Max,Month,Day,Hour,Minute]
334,11,EMS,htg_intgains_outvar [J] !RunPeriod [Value,Min,Month,Day,Hour,Minute,Max,Month,Day,Hour,Minute]
335,11,EMS,htg_mechvent_outvar [J] !RunPeriod [Value,Min,Month,Day,Hour,Minute,Max,Month,Day,Hour,Minute]
336,11,EMS,htg_natvent_outvar [J] !RunPeriod [Value,Min,Month,Day,Hour,Minute,Max,Month,Day,Hour,Minute]
337,11,EMS,htg_rim_joists_outvar [J] !RunPeriod [Value,Min,Month,Day,Hour,Minute,Max,Month,Day,Hour,Minute]
338,11,EMS,htg_roofs_outvar [J] !RunPeriod [Value,Min,Month,Day,Hour,Minute,Max,Month,Day,Hour,Minute]
339,11,EMS,htg_skylights_outvar [J] !RunPeriod [Value,Min,Month,Day,Hour,Minute,Max,Month,Day,Hour,Minute]
340,11,EMS,htg_slabs_outvar [J] !RunPeriod [Value,Min,Month,Day,Hour,Minute,Max,Month,Day,Hour,Minute]
341,11,EMS,htg_walls_outvar [J] !RunPeriod [Value,Min,Month,Day,Hour,Minute,Max,Month,Day,Hour,Minute]
342,11,EMS,htg_windows_outvar [J] !RunPeriod [Value,Min,Month,Day,Hour,Minute,Max,Month,Day,Hour,Minute]
343,11,EMS,water heater EC adjustment outvar [J] !RunPeriod [Value,Min,Month,Day,Hour,Minute,Max,Month,Day,Hour,Minute]
448,1,LIVING,Zone Mean Air Temperature [C] !Hourly
449,1,VENTED ATTIC,Zone Mean Air Temperature [C] !Hourly
717,11,CENTRAL AC CLG COIL,Cooling Coil Electric Energy [J] !RunPeriod [Value,Min,Month,Day,Hour,Minute,Max,Month,Day,Hour,Minute]
730,11,FURNACE HTG COIL,Heating Coil Heating Energy [J] !RunPeriod [Value,Min,Month,Day,Hour,Minute,Max,Month,Day,Hour,Minute]
743,11,FURNACE HTG COIL,Heating Coil Gas Energy [J] !RunPeriod [Value,Min,Month,Day,Hour,Minute,Max,Month,Day,Hour,Minute]
1008,11,WATER USE CONNECTIONS 1,Water Use Connections Plant Hot Water Energy [J] !RunPeriod [Value,Min,Month,Day,Hour,Minute,Max,Month,Day,Hour,Minute]
1045,11,WATER HEATER,Water Heater Heat Loss Energy [J] !RunPeriod [Value,Min,Month,Day,Hour,Minute,Max,Month,Day,Hour,Minute]
1061,11,WATER HEATER,Water Heater Electric Energy [J] !RunPeriod [Value,Min,Month,Day,Hour,Minute,Max,Month,Day,Hour,Minute]
1099,11,WATER HEATER,Water Heater Off Cycle Parasitic Electric Energy [J] !RunPeriod [Value,Min,Month,Day,Hour,Minute,Max,Month,Day,Hour,Minute]
1101,11,WATER HEATER,Water Heater On Cycle Parasitic Electric Energy [J] !RunPeriod [Value,Min,Month,Day,Hour,Minute,Max,Month,Day,Hour,Minute]
1264,11,CENTRAL AC CLG COIL,Cooling Coil Crankcase Heater Electric Energy [J] !RunPeriod [Value,Min,Month,Day,Hour,Minute,Max,Month,Day,Hour,Minute]
End of Data Dictionary
1,RUN PERIOD 1,  39.83,-104.65,  -7.00,1650.00
2,1, 1, 1, 0, 1, 0.00,60.00,Monday
448,20.005169220322043
449,-12.824760100186108
2,1, 1, 1, 0, 2, 0.00,60.00,Monday
448,20.000247439251429
449,-13.593205723573512
2,1, 1, 1, 0, 3, 0.00,60.00,Monday
448,20.000013074610356
449,-13.956157439764333
2,1, 1, 1, 0, 4, 0.00,60.00,Monday
448,20.000000743925406
449,-15.102000308698289
2,1, 1, 1, 0, 5, 0.00,60.00,Monday
448,20.000000043921597
449,-15.198706278502625
2,1, 1, 1, 0, 6, 0.00,60.00,Monday
448,20.000000002566467
449,-14.401016816337214
2,1, 1, 1, 0, 7, 0.00,60.00,Monday
448,20.00000000014568
449,-13.392185736109884
2,1, 1, 1, 0, 8, 0.00,60.00,Monday
448,20.000000000007878
449,-8.916572262411039
2,1, 1, 1, 0, 9, 0.00,60.00,Monday
448,20.00000000000039
449,-6.914423672637266
2,1, 1, 1, 0,10, 0.00,60.00,Monday
448,20.000000000000037
449,-2.7953564425314014
2,1, 1, 1, 0,11, 0.00,60.00,Monday
448,19.999999999999948
449,1.1798141944532828
2,1, 1, 1, 0,12, 0.00,60.00,Monday
448,19.999999999999998
449,2.968816805998511
2,1, 1, 1, 0,13, 0.00,60.00,Monday
448,19.999999999999998
449,4.525631515915452
2,1, 1, 1, 0,14, 0.00,60.00,Monday
448,19.99999999999996
449,3.489711719191176
2,1, 1, 1, 0,15, 0.00,60.00,Monday
448,19.999999999999998
449,4.046328673427792
2,1, 1, 1, 0,16, 0.00,60.00,Monday
448,20.000000000000033
449,2.4384966975097748
2,1, 1, 1, 0,17, 0.00,60.00,Monday
448,20.00000000000002
449,-0.1467751077233964
2,1, 1, 1, 0,18, 0.00,60.00,Monday
448,20.000000000000069
449,-2.0193027169698976
2,1, 1, 1, 0,19, 0.00,60.00,Monday
448,20.000000000000037
449,-4.794337052042379
2,1, 1, 1, 0,20, 0.00,60.00,Monday
448,20.00000000000009
449,-5.5015363807752719
2,1, 1, 1, 0,21, 0.00,60.00,Monday
448,20.000000000000008
449,-5.983075359217062
2,1, 1, 1, 0,22, 0.00,60.00,Monday
448,20.000000000000154
449,-6.1372422087518239
2,1, 1, 1, 0,23, 0.00,60.00,Monday
448,20.000000000000143
449,-6.166477640545217
2,1, 1, 1, 0,24, 0.00,60.00,Monday
448,20.000000000000136
449,-5.070569134922872
2,2, 1, 2, 0, 1, 0.00,60.00,Tuesday
448,20.000000000000019
449,-5.044514072268966
2,2, 1, 2, 0, 2, 0.00,60.00,Tuesday
448,20.000000000000033
449,-5.629717598474793
2,2, 1, 2, 0, 3, 0.00,60.00,Tuesday
448,20.000000000000285
449,-5.055386862590002
2,2, 1, 2, 0, 4, 0.00,60.00,Tuesday
448,20.000000000000079
449,-6.693282740170182
2,2, 1, 2, 0, 5, 0.00,60.00,Tuesday
448,20.000000000000076
449,-5.697009655412226
2,2, 1, 2, 0, 6, 0.00,60.00,Tuesday
448,19.999999999999966
449,-6.184936603726883
2,2, 1, 2, 0, 7, 0.00,60.00,Tuesday
448,20.000000000000044
449,-4.649711075207774
2,2, 1, 2, 0, 8, 0.00,60.00,Tuesday
448,20.000000000000104
449,-3.434621668989265
2,2, 1, 2, 0, 9, 0.00,60.00,Tuesday
448,19.9999999999999
449,-2.0817428787801908
2,2, 1, 2, 0,10, 0.00,60.00,Tuesday
448,20.00000000000007
449,1.7950779690059547
2,2, 1, 2, 0,11, 0.00,60.00,Tuesday
448,20.00000000000006
449,5.451824958274219
2,2, 1, 2, 0,12, 0.00,60.00,Tuesday
448,20.00000000000001
449,9.025655626026096
2,2, 1, 2, 0,13, 0.00,60.00,Tuesday
448,19.99999999999998
449,9.788512261778815
2,2, 1, 2, 0,14, 0.00,60.00,Tuesday
448,20.0
449,9.950872888095193
2,2, 1, 2, 0,15, 0.00,60.00,Tuesday
448,20.001567980570639
449,10.443026968610953
2,2, 1, 2, 0,16, 0.00,60.00,Tuesday
448,20.00000496224136
449,8.396465458308585
2,2, 1, 2, 0,17, 0.00,60.00,Tuesday
448,20.000000041100987
449,7.1777113727377819
2,2, 1, 2, 0,18, 0.00,60.00,Tuesday
448,20.00000000055214
449,5.258180711262657
2,2, 1, 2, 0,19, 0.00,60.00,Tuesday
448,20.000000000012766
449,1.461619067069742
2,2, 1, 2, 0,20, 0.00,60.00,Tuesday
448,20.00000000000035
449,0.19111901626377057
2,2, 1, 2, 0,21, 0.00,60.00,Tuesday
448,20.000000000000015
449,-1.548094481319998
2,2, 1, 2, 0,22, 0.00,60.00,Tuesday
448,19.99999999999996
449,-1.1345951195329936
2,2, 1, 2, 0,23, 0.00,60.00,Tuesday
448,19.99999999999999
449,-1.5825642726268503
2,2, 1, 2, 0,24, 0.00,60.00,Tuesday
448,19.999999999999998
449,-0.32914181196373396
2,3, 1, 3, 0, 1, 0.00,60.00,Wednesday
448,20.0
449,-0.7477500077302133
2,3, 1, 3, 0, 2, 0.00,60.00,Wednesday
448,20.000000000000005
449,-0.7022135837567677
2,3, 1, 3, 0, 3, 0.00,60.00,Wednesday
448,20.00000000000011
449,-1.1636790927378638
2,3, 1, 3, 0, 4, 0.00,60.00,Wednesday
448,20.00000000000001
449,-1.7441576241075226
2,3, 1, 3, 0, 5, 0.00,60.00,Wednesday
448,19.999999999999927
449,-1.7515339478243662
2,3, 1, 3, 0, 6, 0.00,60.00,Wednesday
448,19.999999999999923
449,-1.162519154915949
2,3, 1, 3, 0, 7, 0.00,60.00,Wednesday
448,20.000000000000104
449,-1.1628144972743538
2,3, 1, 3, 0, 8, 0.00,60.00,Wednesday
448,19.99999999999995
449,-0.6639918469531128
2,3, 1, 3, 0, 9, 0.00,60.00,Wednesday
448,20.0
449,3.0675016432269275
2,3, 1, 3, 0,10, 0.00,60.00,Wednesday
448,19.99999999999993
449,5.428744465399781
2,3, 1, 3, 0,11, 0.00,60.00,Wednesday
448,20.0
449,6.336301500557035
2,3, 1, 3, 0,12, 0.00,60.00,Wednesday
448,20.000000000000015
449,6.810690478602435
2,3, 1, 3, 0,13, 0.00,60.00,Wednesday
448,20.000000000000015
449,5.787125721223312
2,3, 1, 3, 0,14, 0.00,60.00,Wednesday
448,20.000000000000005
449,4.772396589206224
2,3, 1, 3, 0,15, 0.00,60.00,Wednesday
448,20.0
449,2.6089314725975747
2,3, 1, 3, 0,16, 0.00,60.00,Wednesday
448,19.999999999999987
449,0.04229285067296706
2,3, 1, 3, 0,17, 0.00,60.00,Wednesday
448,19.99999999999993
449,-2.574101793499872
2,3, 1, 3, 0,18, 0.00,60.00,Wednesday
448,20.00000000000009
449,-5.2226874858582879
2,3, 1, 3, 0,19, 0.00,60.00,Wednesday
448,20.000000000000005
449,-5.305899717576558
2,3, 1, 3, 0,20, 0.00,60.00,Wednesday
448,20.000000000000069
449,-6.319542023265154
2,3, 1, 3, 0,21, 0.00,60.00,Wednesday
448,19.99999999999994
449,-8.253354362003514
2,3, 1, 3, 0,22, 0.00,60.00,Wednesday
448,20.000000000000026
449,-9.651420541958496
2,3, 1, 3, 0,23, 0.00,60.00,Wednesday
448,20.000000000000097
449,-11.104125319082959
2,3, 1, 3, 0,24, 0.00,60.00,Wednesday
448,20.000000000000136
449,-12.174626253273474
2,4, 1, 4, 0, 1, 0.00,60.00,Thursday
448,19.99999999999988
449,-12.534335889329564
2,4, 1, 4, 0, 2, 0.00,60.00,Thursday
448,20.000000000000094
449,-14.023889605831842
2,4, 1, 4, 0, 3, 0.00,60.00,Thursday
448,20.00000000000008
449,-15.851933657202253
2,4, 1, 4, 0, 4, 0.00,60.00,Thursday
448,20.00000000000011
449,-14.758177587159821
2,4, 1, 4, 0, 5, 0.00,60.00,Thursday
448,20.00000000000018
449,-14.422730098521385
2,4, 1, 4, 0, 6, 0.00,60.00,Thursday
448,20.000000000000186
449,-13.707678554485105
2,4, 1, 4, 0, 7, 0.00,60.00,Thursday
448,20.000000000000143
449,-14.61538231064344
2,4, 1, 4, 0, 8, 0.00,60.00,Thursday
448,20.000000000000008
449,-13.101502082846725
2,4, 1, 4, 0, 9, 0.00,60.00,Thursday
448,20.000000000000019
449,-10.238548909674876
2,4, 1, 4, 0,10, 0.00,60.00,Thursday
448,20.000000000000044
449,-2.1416985563930868
2,4, 1, 4, 0,11, 0.00,60.00,Thursday
448,20.000000000000094
449,2.272899089651742
2,4, 1, 4, 0,12, 0.00,60.00,Thursday
448,19.99999999999996
449,2.863954974008373
2,4, 1, 4, 0,13, 0.00,60.00,Thursday
448,20.00000000000007
449,7.786823815015514
2,4, 1, 4, 0,14, 0.00,60.00,Thursday
448,20.000000000000026
449,9.48308365022502
2,4, 1, 4, 0,15, 0.00,60.00,Thursday
448,20.0
449,10.96522227463193
2,4, 1, 4, 0,16, 0.00,60.00,Thursday
448,20.00000000000004
449,9.998867446605285
2,4, 1, 4, 0,17, 0.00,60.00,Thursday
448,20.000000000000055
449,8.153775573355845
2,4, 1, 4, 0,18, 0.00,60.00,Thursday
448,20.000000000000055
449,7.222810209157533
2,4, 1, 4, 0,19, 0.00,60.00,Thursday
448,19.99999999999995
449,6.1228764313259449
2,4, 1, 4, 0,20, 0.00,60.00,Thursday
448,19.999999999999994
449,7.02304181340663
2,4, 1, 4, 0,21, 0.00,60.00,Thursday
448,20.00000000000005
449,6.049354956652284
2,4, 1, 4, 0,22, 0.00,60.00,Thursday
448,20.0
449,5.515096475066266
2,4, 1, 4, 0,23, 0.00,60.00,Thursday
448,20.000000000000037
449,4.918709723898164
2,4, 1, 4, 0,24, 0.00,60.00,Thursday
448,20.000000000000008
449,9.779968436361543
2,5, 1, 5, 0, 1, 0.00,60.00,Friday
448,20.00000000000007
449,5.1595265178974369
2,5, 1, 5, 0, 2, 0.00,60.00,Friday
448,20.00000000000006
449,10.314550961024917
2,5, 1, 5, 0, 3, 0.00,60.00,Friday
448,20.00000000000006
449,10.915150239461197
2,5, 1, 5, 0, 4, 0.00,60.00,Friday
448,19.999999999999984
449,9.328825440877078
2,5, 1, 5, 0, 5, 0.00,60.00,Friday
448,20.00000000000006
449,9.262114056923233
2,5, 1, 5, 0, 6, 0.00,60.00,Friday
448,19.999999999999959
449,9.272849856763182
2,5, 1, 5, 0, 7, 0.00,60.00,Friday
448,19.999999999999944
449,5.127765827599353
2,5, 1, 5, 0, 8, 0.00,60.00,Friday
448,20.00000000000002
449,9.116411793271368
2,5, 1, 5, 0, 9, 0.00,60.00,Friday
448,20.00000000000003
449,8.874805825492226
2,5, 1, 5, 0,10, 0.00,60.00,Friday
448,20.066819452436844
449,12.670858491703048
2,5, 1, 5, 0,11, 0.00,60.00,Friday
448,20.03332257212282
449,12.902355697758738
2,5, 1, 5, 0,12, 0.00,60.00,Friday
448,20.493209143982324
449,15.146120279589152
2,5, 1, 5, 0,13, 0.00,60.00,Friday
448,20.775557234151515
449,14.855282655281674
2,5, 1, 5, 0,14, 0.00,60.00,Friday
448,20.933608105460498
449,13.69236011185136
2,5, 1, 5, 0,15, 0.00,60.00,Friday
448,20.988108358288679
449,11.259761429386659
2,5, 1, 5, 0,16, 0.00,60.00,Friday
448,20.997653797773144
449,9.577227087138322
2,5, 1, 5, 0,17, 0.00,60.00,Friday
448,20.760112119538829
449,6.545685065275966
2,5, 1, 5, 0,18, 0.00,60.00,Friday
448,20.564738972237217
449,5.971950584642691
2,5, 1, 5, 0,19, 0.00,60.00,Friday
448,20.370890799786375
449,4.0924526646024159
2,5, 1, 5, 0,20, 0.00,60.00,Friday
448,20.15848616637211
449,3.3773104403321327
2,5, 1, 5, 0,21, 0.00,60.00,Friday
448,20.001120837462719
449,1.7901612728821399
2,5, 1, 5, 0,22, 0.00,60.00,Friday
448,20.00001830553878
449,0.21639847667164426
2,5, 1, 5, 0,23, 0.00,60.00,Friday
448,20.000000431097793
449,0.5565473299079468
2,5, 1, 5, 0,24, 0.00,60.00,Friday
448,20.0000000141995
449,-0.03622000668738805
2,6, 1, 6, 0, 1, 0.00,60.00,Saturday
448,20.000000000509436
449,-0.05374331858873869
2,6, 1, 6, 0, 2, 0.00,60.00,Saturday
448,20.00000000001864
449,0.9778209728220096
2,6, 1, 6, 0, 3, 0.00,60.00,Saturday
448,20.000000000000719
449,0.534360860154213
2,6, 1, 6, 0, 4, 0.00,60.00,Saturday
448,20.000000000000033
449,-0.03300449869921946
2,6, 1, 6, 0, 5, 0.00,60.00,Saturday
448,20.000000000000005
449,-0.6652433674218438
2,6, 1, 6, 0, 6, 0.00,60.00,Saturday
448,19.99999999999999
449,-0.16057797321220569
2,6, 1, 6, 0, 7, 0.00,60.00,Saturday
448,20.00000000000005
449,-0.6787215919450004
2,6, 1, 6, 0, 8, 0.00,60.00,Saturday
448,20.00000000000012
449,-0.6653193990347375
2,6, 1, 6, 0, 9, 0.00,60.00,Saturday
448,20.000000000000005
449,-0.5980267460397721
2,6, 1, 6, 0,10, 0.00,60.00,Saturday
448,20.000000000000069
449,0.11039775326482664
2,6, 1, 6, 0,11, 0.00,60.00,Saturday
448,20.00000000000003
449,0.9023535173026838
2,6, 1, 6, 0,12, 0.00,60.00,Saturday
448,20.0
449,1.692161578134334
2,6, 1, 6, 0,13, 0.00,60.00,Saturday
448,20.000000000000005
449,1.9823766720113126
2,6, 1, 6, 0,14, 0.00,60.00,Saturday
448,20.000000000000033
449,1.4371436290077727
2,6, 1, 6, 0,15, 0.00,60.00,Saturday
448,19.999999999999998
449,1.8961746890888823
2,6, 1, 6, 0,16, 0.00,60.00,Saturday
448,20.000000000000008
449,0.8275639094092249
2,6, 1, 6, 0,17, 0.00,60.00,Saturday
448,20.000000000000044
449,-0.44439690935218925
2,6, 1, 6, 0,18, 0.00,60.00,Saturday
448,19.999999999999969
449,-1.5464269746555262
2,6, 1, 6, 0,19, 0.00,60.00,Saturday
448,20.0
449,-3.142499454593777
2,6, 1, 6, 0,20, 0.00,60.00,Saturday
448,20.0
449,-4.314383754413315
2,6, 1, 6, 0,21, 0.00,60.00,Saturday
448,20.0
449,-5.774389412688779
2,6, 1, 6, 0,22, 0.00,60.00,Saturday
448,19.999999999999998
449,-7.582882446560071
2,6, 1, 6, 0,23, 0.00,60.00,Saturday
448,19.99999999999993
449,-7.69772216652449
2,6, 1, 6, 0,24, 0.00,60.00,Saturday
448,20.000000000000065
449,-8.778346858250123
2,7, 1, 7, 0, 1, 0.00,60.00,Sunday
448,20.00000000000005
449,-8.864595548549652
2,7, 1, 7, 0, 2, 0.00,60.00,Sunday
448,20.000000000000126
449,-8.322699376278099
2,7, 1, 7, 0, 3, 0.00,60.00,Sunday
448,20.000000000000154
449,-10.468324447246314
2,7, 1, 7, 0, 4, 0.00,60.00,Sunday
448,20.000000000000317
449,-11.839954862008768
2,7, 1, 7, 0, 5, 0.00,60.00,Sunday
448,19.999999999999888
449,-12.065377104033754
2,7, 1, 7, 0, 6, 0.00,60.00,Sunday
448,19.999999999999969
449,-12.74299111086387
2,7, 1, 7, 0, 7, 0.00,60.00,Sunday
448,19.999999999999994
449,-12.78251145015192
2,7, 1, 7, 0, 8, 0.00,60.00,Sunday
448,20.000000000000143
449,-3.5340203790610325
2,7, 1, 7, 0, 9, 0.00,60.00,Sunday
448,20.000000000000079
449,-1.133461466973137
2,7, 1, 7, 0,10, 0.00,60.00,Sunday
448,20.000000000000143
449,0.2390846942586632
2,7, 1, 7, 0,11, 0.00,60.00,Sunday
448,20.00000000000011
449,2.183546782189198
2,7, 1, 7, 0,12, 0.00,60.00,Sunday
448,20.000000000000047
449,4.5894681484188128
2,7, 1, 7, 0,13, 0.00,60.00,Sunday
448,20.000000000000005
449,5.432754876648654
2,7, 1, 7, 0,14, 0.00,60.00,Sunday
448,19.999999999999984
449,5.040758858394902
2,7, 1, 7, 0,15, 0.00,60.00,Sunday
448,20.000000000000076
449,5.013142149054542
2,7, 1, 7, 0,16, 0.00,60.00,Sunday
448,20.000000000000005
449,4.471952172330376
2,7, 1, 7, 0,17, 0.00,60.00,Sunday
448,20.00000000000001
449,4.9567435102787809
2,7, 1, 7, 0,18, 0.00,60.00,Sunday
448,20.000000000000005
449,5.530037762283429
2,7, 1, 7, 0,19, 0.00,60.00,Sunday
448,20.00000000000004
449,4.947688181191566
2,7, 1, 7, 0,20, 0.00,60.00,Sunday
448,19.999999999999998
449,4.365255513881613
2,7, 1, 7, 0,21, 0.00,60.00,Sunday
448,19.999999999999959
449,2.2392826982237006
2,7, 1, 7, 0,22, 0.00,60.00,Sunday
448,19.99999999999996
449,-0.4257123740864578
2,7, 1, 7, 0,23, 0.00,60.00,Sunday
448,20.000000000000008
449,-0.013555493139255458
2,7, 1, 7, 0,24, 0.00,60.00,Sunday
448,20.00000000000001
449,1.5610665980394243
2,8, 1, 8, 0, 1, 0.00,60.00,Monday
448,19.99999999999983
449,1.616858915951637
2,8, 1, 8, 0, 2, 0.00,60.00,Monday
448,20.00000000000011
449,1.0652839245751913
2,8, 1, 8, 0, 3, 0.00,60.00,Monday
448,20.000000000000214
449,-0.5632739283683723
2,8, 1, 8, 0, 4, 0.00,60.00,Monday
448,20.000000000000136
449,-1.6790517898616214
2,8, 1, 8, 0, 5, 0.00,60.00,Monday
448,20.000000000000136
449,-3.247456497574485
2,8, 1, 8, 0, 6, 0.00,60.00,Monday
448,20.000000000000175
449,-3.281030624667421
2,8, 1, 8, 0, 7, 0.00,60.00,Monday
448,20.00000000000008
449,-4.3630682909885369
2,8, 1, 8, 0, 8, 0.00,60.00,Monday
448,20.00000000000003
449,-2.9083115917882957
2,8, 1, 8, 0, 9, 0.00,60.00,Monday
448,20.000000000000097
449,2.0189226479108868
2,8, 1, 8, 0,10, 0.00,60.00,Monday
448,20.0000000000001
449,4.860530516194965
2,8, 1, 8, 0,11, 0.00,60.00,Monday
448,19.99999999999999
449,7.159564712796142
2,8, 1, 8, 0,12, 0.00,60.00,Monday
448,19.99999999999998
449,7.877113435827541
2,8, 1, 8, 0,13, 0.00,60.00,Monday
448,20.0
449,10.662890563377431
2,8, 1, 8, 0,14, 0.00,60.00,Monday
448,20.219185071594326
449,10.855294032813227
2,8, 1, 8, 0,15, 0.00,60.00,Monday
448,20.360584671952233
449,8.293753249219034
2,8, 1, 8, 0,16, 0.00,60.00,Monday
448,20.50669829051431
449,7.565042175502262
2,8, 1, 8, 0,17, 0.00,60.00,Monday
448,20.257837547642955
449,5.015327623632545
2,8, 1, 8, 0,18, 0.00,60.00,Monday
448,20.00195659519529
449,1.2110398115153385
2,8, 1, 8, 0,19, 0.00,60.00,Monday
448,20.000038118694829
449,-0.3655758120057906
2,8, 1, 8, 0,20, 0.00,60.00,Monday
448,20.000000988775697
449,-1.577576909047494
2,8, 1, 8, 0,21, 0.00,60.00,Monday
448,20.000000027155975
449,-1.0888140480044158
2,8, 1, 8, 0,22, 0.00,60.00,Monday
448,20.00000000102626
449,-2.155993336848528
2,8, 1, 8, 0,23, 0.00,60.00,Monday
448,20.000000000036793
449,-1.7203802911571245
2,8, 1, 8, 0,24, 0.00,60.00,Monday
448,20.000000000001728
449,-2.779603189802811
2,9, 1, 9, 0, 1, 0.00,60.00,Tuesday
448,20.00000000000009
449,-3.2923954086240014
2,9, 1, 9, 0, 2, 0.00,60.00,Tuesday
448,20.000000000000005
449,-3.3179428295045216
2,9, 1, 9, 0, 3, 0.00,60.00,Tuesday
448,20.00000000000004
449,-3.333979426631098
2,9, 1, 9, 0, 4, 0.00,60.00,Tuesday
448,19.99999999999997
449,-3.3425833285986865
2,9, 1, 9, 0, 5, 0.00,60.00,Tuesday
448,19.99999999999995
449,-3.929557958053928
2,9, 1, 9, 0, 6, 0.00,60.00,Tuesday
448,19.999999999999884
449,-3.3779294159484487
2,9, 1, 9, 0, 7, 0.00,60.00,Tuesday
448,20.00000000000011
449,-5.14748483928483
2,9, 1, 9, 0, 8, 0.00,60.00,Tuesday
448,19.999999999999873
449,-1.621587596328021
2,9, 1, 9, 0, 9, 0.00,60.00,Tuesday
448,20.000000000000055
449,0.26746508174141889
2,9, 1, 9, 0,10, 0.00,60.00,Tuesday
448,20.00000000000006
449,2.6956807978275889
2,9, 1, 9, 0,11, 0.00,60.00,Tuesday
448,19.999999999999976
449,3.957178433069302
2,9, 1, 9, 0,12, 0.00,60.00,Tuesday
448,20.000000000000065
449,3.577673801490391
2,9, 1, 9, 0,13, 0.00,60.00,Tuesday
448,20.000000000000019
449,3.6193230813737315
2,9, 1, 9, 0,14, 0.00,60.00,Tuesday
448,20.000000000000019
449,4.196063773273366
2,9, 1, 9, 0,15, 0.00,60.00,Tuesday
448,20.0
449,4.677474029286783
2,9, 1, 9, 0,16, 0.00,60.00,Tuesday
448,20.017009419465138
449,4.236596997969201
2,9, 1, 9, 0,17, 0.00,60.00,Tuesday
448,20.000139361064514
449,3.112496351169519
2,9, 1, 9, 0,18, 0.00,60.00,Tuesday
448,20.000002480405013
449,1.337511166617101
2,9, 1, 9, 0,19, 0.00,60.00,Tuesday
448,20.000000055597505
449,0.11863531149175573
2,9, 1, 9, 0,20, 0.00,60.00,Tuesday
448,20.00000000142913
449,0.5824068621868995
2,9, 1, 9, 0,21, 0.00,60.00,Tuesday
448,20.00000000004979
449,-1.6290894501359499
2,9, 1, 9, 0,22, 0.00,60.00,Tuesday
448,20.000000000001938
449,-1.7024643782856078
2,9, 1, 9, 0,23, 0.00,60.00,Tuesday
448,20.0000000000001
449,-2.770708104533261
2,9, 1, 9, 0,24, 0.00,60.00,Tuesday
448,20.000000000000005
449,-4.344293695464197
2,10, 1,10, 0, 1, 0.00,60.00,Wednesday
448,20.0
449,-4.397589758254302
2,10, 1,10, 0, 2, 0.00,60.00,Wednesday
448,20.0
449,-4.9952460848586439
2,10, 1,10, 0, 3, 0.00,60.00,Wednesday
448,20.000000000000076
449,-5.0371387452020699
2,10, 1,10, 0, 4, 0.00,60.00,Wednesday
448,19.999999999999877
449,-5.616915955059169
2,10, 1,10, 0, 5, 0.00,60.00,Wednesday
448,20.00000000000015
449,-6.112376713716366
2,10, 1,10, 0, 6, 0.00,60.00,Wednesday
448,20.000000000000015
449,-6.705373484125283
2,10, 1,10, 0, 7, 0.00,60.00,Wednesday
448,20.0
449,-5.729065240482256
2,10, 1,10, 0, 8, 0.00,60.00,Wednesday
448,20.000000000000055
449,-5.085921012986247
2,10, 1,10, 0, 9, 0.00,60.00,Wednesday
448,19.999999999999987
449,-1.831839872781692
2,10, 1,10, 0,10, 0.00,60.00,Wednesday
448,20.000000000000008
449,1.5862753471534826
2,10, 1,10, 0,11, 0.00,60.00,Wednesday
448,19.999999999999987
449,4.373937720727163
2,10, 1,10, 0,12, 0.00,60.00,Wednesday
448,20.000000000000019
449,6.24813594520169
2,10, 1,10, 0,13, 0.00,60.00,Wednesday
448,19.999999999999998
449,8.236888204318925
2,10, 1,10, 0,14, 0.00,60.00,Wednesday
448,20.076580755004028
449,8.385393802159668
2,10, 1,10, 0,15, 0.00,60.00,Wednesday
448,20.2955033524944
449,12.802469057755863
2,10, 1,10, 0,16, 0.00,60.00,Wednesday
448,20.41490325806408
449,7.079309764216338
2,10, 1,10, 0,17, 0.00,60.00,Wednesday
448,20.195091021461097
449,4.581401489257469
2,10, 1,10, 0,18, 0.00,60.00,Wednesday
448,20.001552848628916
449,1.4279408669451095
2,10, 1,10, 0,19, 0.00,60.00,Wednesday
448,20.00002702437308
449,-0.7326681756895299
2,10, 1,10, 0,20, 0.00,60.00,Wednesday
448,20.000000557596576
449,-2.000399726839337
2,10, 1,10, 0,21, 0.00,60.00,Wednesday
448,20.00000001479586
449,-1.1372082793311605
2,10, 1,10, 0,22, 0.00,60.00,Wednesday
448,20.0000000005901
449,-3.24114130726658
2,10, 1,10, 0,23, 0.00,60.00,Wednesday
448,20.000000000024945
449,-4.325430455065596
2,10, 1,10, 0,24, 0.00,60.00,Wednesday
448,20.000000000001504
449,-4.9835982505864468
2,11, 1,11, 0, 1, 0.00,60.00,Thursday
448,20.000000000000087
449,-5.582234479104468
2,11, 1,11, 0, 2, 0.00,60.00,Thursday
448,19.99999999999993
449,-6.092655455274835
2,11, 1,11, 0, 3, 0.00,60.00,Thursday
448,20.00000000000013
449,-6.134863136245014
2,11, 1,11, 0, 4, 0.00,60.00,Thursday
448,20.000000000000136
449,-5.666095501677445
2,11, 1,11, 0, 5, 0.00,60.00,Thursday
448,20.000000000000069
449,-5.072111053130976
2,11, 1,11, 0, 6, 0.00,60.00,Thursday
448,20.000000000000037
449,-4.009318008579432
2,11, 1,11, 0, 7, 0.00,60.00,Thursday
448,20.00000000000012
449,-3.9870044114332976
2,11, 1,11, 0, 8, 0.00,60.00,Thursday
448,19.99999999999991
449,-3.3854787209242915
2,11, 1,11, 0, 9, 0.00,60.00,Thursday
448,20.0000000000001
449,-1.7746801966398518
2,11, 1,11, 0,10, 0.00,60.00,Thursday
448,20.000000000000019
449,1.0212395383413862
2,11, 1,11, 0,11, 0.00,60.00,Thursday
448,19.99999999999998
449,6.942691496865332
2,11, 1,11, 0,12, 0.00,60.00,Thursday
448,20.000000000000026
449,8.162525129993249
2,11, 1,11, 0,13, 0.00,60.00,Thursday
448,20.000000000000008
449,10.720757615004187
2,11, 1,11, 0,14, 0.00,60.00,Thursday
448,20.0706294171246
449,11.827677830694617
2,11, 1,11, 0,15, 0.00,60.00,Thursday
448,20.04346373089869
449,12.301964307012208
2,11, 1,11, 0,16, 0.00,60.00,Thursday
448,20.000151882140249
449,10.240457551731412
2,11, 1,11, 0,17, 0.00,60.00,Thursday
448,20.00000119297805
449,8.534657916977837
2,11, 1,11, 0,18, 0.00,60.00,Thursday
448,20.00000001010468
449,7.910828049226718
2,11, 1,11, 0,19, 0.00,60.00,Thursday
448,20.00000000008358
449,7.245904973098487
2,11, 1,11, 0,20, 0.00,60.00,Thursday
448,20.00000000000121
449,5.651502713905642
2,11, 1,11, 0,21, 0.00,60.00,Thursday
448,20.00000000000003
449,4.443108389637831
2,11, 1,11, 0,22, 0.00,60.00,Thursday
448,20.000000000000047
449,6.001567956767735
2,11, 1,11, 0,23, 0.00,60.00,Thursday
448,20.000000000000055
449,4.4273125161044819
2,11, 1,11, 0,24, 0.00,60.00,Thursday
448,20.00000000000003
449,3.89812281046517
2,12, 1,12, 0, 1, 0.00,60.00,Friday
448,20.0
449,2.8379693471205189
2,12, 1,12, 0, 2, 0.00,60.00,Friday
448,20.000000000000165
449,0.16505325304162339
2,12, 1,12, 0, 3, 0.00,60.00,Friday
448,20.000000000000058
449,-0.9375689394847849
2,12, 1,12, 0, 4, 0.00,60.00,Friday
448,20.000000000000097
449,-3.1342720956515808
2,12, 1,12, 0, 5, 0.00,60.00,Friday
448,19.999999999999898
449,-4.7867309777534559
2,12, 1,12, 0, 6, 0.00,60.00,Friday
448,19.99999999999993
449,-5.481354160555072
2,12, 1,12, 0, 7, 0.00,60.00,Friday
448,20.000000000000047
449,-6.018651156696444
2,12, 1,12, 0, 8, 0.00,60.00,Friday
448,19.999999999999976
449,-4.465898978272662
2,12, 1,12, 0, 9, 0.00,60.00,Friday
448,20.000000000000097
449,-0.8216318603650331
2,12, 1,12, 0,10, 0.00,60.00,Friday
448,20.0000000000001
449,1.9075538597595876
2,12, 1,12, 0,11, 0.00,60.00,Friday
448,20.000000000000058
449,5.618459954702535
2,12, 1,12, 0,12, 0.00,60.00,Friday
448,20.0000000000001
449,7.245268036504323
2,12, 1,12, 0,13, 0.00,60.00,Friday
448,20.00000000000007
449,7.733742412349977
2,12, 1,12, 0,14, 0.00,60.00,Friday
448,20.000000000000005
449,8.849323098371967
2,12, 1,12, 0,15, 0.00,60.00,Friday
448,20.000000000000015
449,8.309618300524
2,12, 1,12, 0,16, 0.00,60.00,Friday
448,19.99999999999998
449,8.289875760665705
2,12, 1,12, 0,17, 0.00,60.00,Friday
448,19.999999999999998
449,4.50395803567906
2,12, 1,12, 0,18, 0.00,60.00,Friday
448,20.000000000000147
449,2.3787006865458326
2,12, 1,12, 0,19, 0.00,60.00,Friday
448,19.999999999999994
449,2.249094417309147
2,12, 1,12, 0,20, 0.00,60.00,Friday
448,20.000000000000033
449,2.2070329203043297
2,12, 1,12, 0,21, 0.00,60.00,Friday
448,20.000000000000079
449,-0.8624497965187746
2,12, 1,12, 0,22, 0.00,60.00,Friday
448,20.0
449,-2.070232926959009
2,12, 1,12, 0,23, 0.00,60.00,Friday
448,20.00000000000006
449,-1.7096407646381525
2,12, 1,12, 0,24, 0.00,60.00,Friday
448,20.000000000000047
449,-1.738953191948167
2,13, 1,13, 0, 1, 0.00,60.00,Saturday
448,20.000000000000097
449,0.42072840372290479
2,13, 1,13, 0, 2, 0.00,60.00,Saturday
448,20.000000000000094
449,2.9740729679068158
2,13, 1,13, 0, 3, 0.00,60.00,Saturday
448,20.0000000000001
449,2.6648877729780229
2,13, 1,13, 0, 4, 0.00,60.00,Saturday
448,20.0000000000001
449,2.6088728799601745
2,13, 1,13, 0, 5, 0.00,60.00,Saturday
448,20.000000000000097
449,3.026349494301568
2,13, 1,13, 0, 6, 0.00,60.00,Saturday
448,20.00000000000003
449,2.6433366103715496
2,13, 1,13, 0, 7, 0.00,60.00,Saturday
448,20.000000000000019
449,2.108704763158135