Program Version,EnergyPlus, Version 9.1.0-fafb9d5652, YMD=2019.09.26 13:40
1,5,Environment Title[],Latitude[deg],Longitude[deg],Time Zone[],Elevation[m]
2,8,Day of Simulation[],Month[],Day of Month[],DST Indicator[1=yes 0=no],Hour[],StartMinute[],EndMinute[],DayType
3,5,Cumulative Day of Simulation[],Month[],Day of Month[],DST Indicator[1=yes 0=no],DayType  ! When Daily Meters Requested
4,2,Cumulative Days of Simulation[],Month[]  ! When Monthly Meters Requested
5,1,Cumulative Days of Simulation[] ! When Run Period Meters Requested
6,1,Calendar Year of Simulation[] ! When Annual Meters Requested
12,1,Electricity:Facility [J] !Hourly
572,1,Gas:Facility [J] !Hourly
End of Data Dictionary
1,RUN PERIOD 1,  39.83,-104.65,  -7.00,1650.00
2,1, 1, 1, 0, 1, 0.00,60.00,Monday
12,2479947.379987956
572,1702283.2292302508
2,1, 1, 1, 0, 2, 0.00,60.00,Monday
12,2305294.7670584928
572,6735002.364797214
2,1, 1, 1, 0, 3, 0.00,60.00,Monday
12,2206945.5729328219
572,7386211.104906994
2,1, 1, 1, 0, 4, 0.00,60.00,Monday
12,2184673.6284928855
572,8886645.495476086
2,1, 1, 1, 0, 5, 0.00,60.00,Monday
12,2132532.257178682
572,9484479.259018686
2,1, 1, 1, 0, 6, 0.00,60.00,Monday
12,2570958.0783462577
572,9108255.246248516
2,1, 1, 1, 0, 7, 0.00,60.00,Monday
12,3625684.270967262
572,8577363.014212866
2,1, 1, 1, 0, 8, 0.00,60.00,Monday
12,5455105.0184667319
572,7807915.854772425
2,1, 1, 1, 0, 9, 0.00,60.00,Monday
12,10445408.510201175
572,6812940.773743856
2,1, 1, 1, 0,10, 0.00,60.00,Monday
12,3789196.118700265
572,3812960.6885962889
2,1, 1, 1, 0,11, 0.00,60.00,Monday
12,3794025.75849395
572,1827175.9210192129
2,1, 1, 1, 0,12, 0.00,60.00,Monday
12,4970042.282130938
572,1035160.457612476
2,1, 1, 1, 0,13, 0.00,60.00,Monday
12,4961677.9578693979
572,1459676.8274228248
2,1, 1, 1, 0,14, 0.00,60.00,Monday
12,3759484.011398895
572,1823232.5625610597
2,1, 1, 1, 0,15, 0.00,60.00,Monday
12,5031163.77346858
572,1482983.3845010186
2,1, 1, 1, 0,16, 0.00,60.00,Monday
12,5496978.778719915
572,1632954.3320416988
2,1, 1, 1, 0,17, 0.00,60.00,Monday
12,4831604.577864247
572,3385552.9773360446
2,1, 1, 1, 0,18, 0.00,60.00,Monday
12,7571709.61249428
572,5149570.062850512
2,1, 1, 1, 0,19, 0.00,60.00,Monday
12,16736344.909160436
572,6495176.78389836
2,1, 1, 1, 0,20, 0.00,60.00,Monday
12,7006811.632217746
572,6491814.696603007
2,1, 1, 1, 0,21, 0.00,60.00,Monday
12,6519860.76827039
572,6425771.055173996
2,1, 1, 1, 0,22, 0.00,60.00,Monday
12,6990335.804338875
572,7072675.65465438
2,1, 1, 1, 0,23, 0.00,60.00,Monday
12,5040463.546708172
572,8077678.17661053
2,1, 1, 1, 0,24, 0.00,60.00,Monday
12,3639800.0293437188
572,10347274.189152407
2,2, 1, 2, 0, 1, 0.00,60.00,Tuesday
12,2735633.608392147
572,11159040.837183588
2,2, 1, 2, 0, 2, 0.00,60.00,Tuesday
12,2426047.008063382
572,11201119.60907538
2,2, 1, 2, 0, 3, 0.00,60.00,Tuesday
12,2311821.0977179415
572,11265115.428733003
2,2, 1, 2, 0, 4, 0.00,60.00,Tuesday
12,3409629.599181017
572,12221216.599466736
2,2, 1, 2, 0, 5, 0.00,60.00,Tuesday
12,2173633.1998375498
572,11004630.166672854
2,2, 1, 2, 0, 6, 0.00,60.00,Tuesday
12,2624118.2205043516
572,11074425.195764637
2,2, 1, 2, 0, 7, 0.00,60.00,Tuesday
12,3662362.283309942
572,9933928.342080024
2,2, 1, 2, 0, 8, 0.00,60.00,Tuesday
12,5509001.992361696
572,8447319.547951257
2,2, 1, 2, 0, 9, 0.00,60.00,Tuesday
12,4066988.3930594075
572,7714721.181647316
2,2, 1, 2, 0,10, 0.00,60.00,Tuesday
12,5097749.8574578319
572,4801384.287465307
2,2, 1, 2, 0,11, 0.00,60.00,Tuesday
12,5543088.384247618
572,2191571.408461506
2,2, 1, 2, 0,12, 0.00,60.00,Tuesday
12,4488608.301046364
572,1191539.7183578367
2,2, 1, 2, 0,13, 0.00,60.00,Tuesday
12,3711666.0414743798
572,738710.8435616148
2,2, 1, 2, 0,14, 0.00,60.00,Tuesday
12,3734336.5112962538
572,893132.3596642222
2,2, 1, 2, 0,15, 0.00,60.00,Tuesday
12,3621532.992798267
572,0.0
2,2, 1, 2, 0,16, 0.00,60.00,Tuesday
12,5150096.646079983
572,762477.6182469367
2,2, 1, 2, 0,17, 0.00,60.00,Tuesday
12,4785878.132246334
572,1694324.18030328
2,2, 1, 2, 0,18, 0.00,60.00,Tuesday
12,7405953.624132877
572,2295914.4660295906
2,2, 1, 2, 0,19, 0.00,60.00,Tuesday
12,7020861.543696239
572,3389760.690824272
2,2, 1, 2, 0,20, 0.00,60.00,Tuesday
12,6940949.470731758
572,4055850.504881732
2,2, 1, 2, 0,21, 0.00,60.00,Tuesday
12,6488788.902490395
572,5276553.496832234
2,2, 1, 2, 0,22, 0.00,60.00,Tuesday
12,5752940.991972806
572,5216870.295798287
2,2, 1, 2, 0,23, 0.00,60.00,Tuesday
12,4958639.768442253
572,5051360.949995927
2,2, 1, 2, 0,24, 0.00,60.00,Tuesday
12,9291556.608563459
572,6620505.618160569
2,3, 1, 3, 0, 1, 0.00,60.00,Wednesday
12,3259838.0115420289
572,7556623.964153019
2,3, 1, 3, 0, 2, 0.00,60.00,Wednesday
12,2350603.8590325398
572,8410795.006854127
2,3, 1, 3, 0, 3, 0.00,60.00,Wednesday
12,2250603.6646392319
572,9000940.194815813
2,3, 1, 3, 0, 4, 0.00,60.00,Wednesday
12,2208059.9430613766
572,9751606.856898964
2,3, 1, 3, 0, 5, 0.00,60.00,Wednesday
12,2152398.740746808
572,10219256.883917459
2,3, 1, 3, 0, 6, 0.00,60.00,Wednesday
12,3737298.5502359776
572,10275328.929174763
2,3, 1, 3, 0, 7, 0.00,60.00,Wednesday
12,3646861.488522807
572,9360619.173465623
2,3, 1, 3, 0, 8, 0.00,60.00,Wednesday
12,4330031.406970689
572,9105684.156567052
2,3, 1, 3, 0, 9, 0.00,60.00,Wednesday
12,4031863.741204021
572,6415608.121341826
2,3, 1, 3, 0,10, 0.00,60.00,Wednesday
12,16517871.691395708
572,5603976.934874025
2,3, 1, 3, 0,11, 0.00,60.00,Wednesday
12,14280662.037432755
572,3576091.502534002
2,3, 1, 3, 0,12, 0.00,60.00,Wednesday
12,4191970.6260793909
572,2596610.4640652716
2,3, 1, 3, 0,13, 0.00,60.00,Wednesday
12,3778408.448858241
572,3207231.6267877749
2,3, 1, 3, 0,14, 0.00,60.00,Wednesday
12,3829048.4312531396
572,4396127.711452469
2,3, 1, 3, 0,15, 0.00,60.00,Wednesday
12,5041936.922938937
572,3860066.7790886589
2,3, 1, 3, 0,16, 0.00,60.00,Wednesday
12,4093295.989250095
572,5706758.873004194
2,3, 1, 3, 0,17, 0.00,60.00,Wednesday
12,4931317.509773061
572,7073514.715929793
2,3, 1, 3, 0,18, 0.00,60.00,Wednesday
12,6385040.757198752
572,7980340.084158167
2,3, 1, 3, 0,19, 0.00,60.00,Wednesday
12,8356151.503504363
572,7602116.557777239
2,3, 1, 3, 0,20, 0.00,60.00,Wednesday
12,17447994.859223855
572,7853690.1669364939
2,3, 1, 3, 0,21, 0.00,60.00,Wednesday
12,6991272.388146083
572,9750194.150171992
2,3, 1, 3, 0,22, 0.00,60.00,Wednesday
12,5911355.077008848
572,11075940.661932273
2,3, 1, 3, 0,23, 0.00,60.00,Wednesday
12,5165949.181637337
572,12718863.743043604
2,3, 1, 3, 0,24, 0.00,60.00,Wednesday
12,4921485.467731278
572,14255880.8026531
2,4, 1, 4, 0, 1, 0.00,60.00,Thursday
12,2854965.208714995
572,15572614.560983899
2,4, 1, 4, 0, 2, 0.00,60.00,Thursday
12,3782887.8295280097
572,17824530.26201999
2,4, 1, 4, 0, 3, 0.00,60.00,Thursday
12,2506514.175336944
572,18465993.060980087
2,4, 1, 4, 0, 4, 0.00,60.00,Thursday
12,2437992.6655007957
572,18255850.655313724
2,4, 1, 4, 0, 5, 0.00,60.00,Thursday
12,2369673.7745357018
572,18255346.045330276
2,4, 1, 4, 0, 6, 0.00,60.00,Thursday
12,3940289.4574962405
572,17782092.460888067
2,4, 1, 4, 0, 7, 0.00,60.00,Thursday
12,3839262.031250616
572,16476705.587550085
2,4, 1, 4, 0, 8, 0.00,60.00,Thursday
12,5390918.42063052
572,14125370.086722237
2,4, 1, 4, 0, 9, 0.00,60.00,Thursday
12,15590996.94622312
572,12918283.553954848
2,4, 1, 4, 0,10, 0.00,60.00,Thursday
12,5548443.263527168
572,9870983.766315712
2,4, 1, 4, 0,11, 0.00,60.00,Thursday
12,5103598.047097741
572,8197591.559544174
2,4, 1, 4, 0,12, 0.00,60.00,Thursday
12,9072844.87496328
572,7717932.646329234
2,4, 1, 4, 0,13, 0.00,60.00,Thursday
12,3855135.6041286278
572,6045046.216445009
2,4, 1, 4, 0,14, 0.00,60.00,Thursday
12,3850832.3128558897
572,5201821.820843092
2,4, 1, 4, 0,15, 0.00,60.00,Thursday
12,4929799.612355314
572,4240909.436097877
2,4, 1, 4, 0,16, 0.00,60.00,Thursday
12,4741028.551147869
572,4943283.4827536
2,4, 1, 4, 0,17, 0.00,60.00,Thursday
12,5176208.591596306
572,4424832.390115527
2,4, 1, 4, 0,18, 0.00,60.00,Thursday
12,6274714.699642374
572,3899843.490096519
2,4, 1, 4, 0,19, 0.00,60.00,Thursday
12,7027517.674173679
572,3635942.9468062447
2,4, 1, 4, 0,20, 0.00,60.00,Thursday
12,9607127.435628167
572,3184035.6880013674
2,4, 1, 4, 0,21, 0.00,60.00,Thursday
12,7580127.146665446
572,3668926.5749614739
2,4, 1, 4, 0,22, 0.00,60.00,Thursday
12,5718871.584630859
572,3956786.2893569737
2,4, 1, 4, 0,23, 0.00,60.00,Thursday
12,6180060.184297464
572,4652841.030836588
2,4, 1, 4, 0,24, 0.00,60.00,Thursday
12,3292353.6420709847
572,4154136.973085698
2,5, 1, 5, 0, 1, 0.00,60.00,Friday
12,2596087.3579191348
572,5997812.271772158
2,5, 1, 5, 0, 2, 0.00,60.00,Friday
12,2069419.0070068972
572,4668393.137284198
2,5, 1, 5, 0, 3, 0.00,60.00,Friday
12,2267287.1667810857
572,4647716.935429263
2,5, 1, 5, 0, 4, 0.00,60.00,Friday
12,2900060.538566229
572,5006641.080637091
2,5, 1, 5, 0, 5, 0.00,60.00,Friday
12,2008221.330347869
572,4886741.2017281879
2,5, 1, 5, 0, 6, 0.00,60.00,Friday
12,6345417.02775397
572,4659917.03540675
2,5, 1, 5, 0, 7, 0.00,60.00,Friday
12,13896794.595426625
572,6394009.672171813
2,5, 1, 5, 0, 8, 0.00,60.00,Friday
12,4137031.6396766605
572,3100678.318110576
2,5, 1, 5, 0, 9, 0.00,60.00,Friday
12,3907515.201622098
572,1816478.926670019
2,5, 1, 5, 0,10, 0.00,60.00,Friday
12,3506103.5389876689
572,0.0
2,5, 1, 5, 0,11, 0.00,60.00,Friday
12,20403813.561178969
572,546731.8065151327
2,5, 1, 5, 0,12, 0.00,60.00,Friday
12,15360845.07711167
572,0.0
2,5, 1, 5, 0,13, 0.00,60.00,Friday
12,4815084.953209728
572,0.0
2,5, 1, 5, 0,14, 0.00,60.00,Friday
12,4713870.464562848
572,0.0
2,5, 1, 5, 0,15, 0.00,60.00,Friday
12,3621532.992798267
572,0.0
2,5, 1, 5, 0,16, 0.00,60.00,Friday
12,3939000.012432055
572,0.0
2,5, 1, 5, 0,17, 0.00,60.00,Friday
12,4757374.18912621
572,640083.2747986202
2,5, 1, 5, 0,18, 0.00,60.00,Friday
12,8777917.848789646
572,1658737.1085114347
2,5, 1, 5, 0,19, 0.00,60.00,Friday
12,6988750.078442043
572,2202092.7227822185
2,5, 1, 5, 0,20, 0.00,60.00,Friday
12,9834633.163347993
572,2764453.0746423669
2,5, 1, 5, 0,21, 0.00,60.00,Friday
12,7816706.494635981
572,3950549.7382768427
2,5, 1, 5, 0,22, 0.00,60.00,Friday
12,8917879.654837253
572,4745146.447388729
2,5, 1, 5, 0,23, 0.00,60.00,Friday
12,4966269.40071011
572,5333548.940507808
2,5, 1, 5, 0,24, 0.00,60.00,Friday
12,3540159.394588544
572,6661986.418030309
2,6, 1, 6, 0, 1, 0.00,60.00,Saturday
12,2637487.7273787895
572,7529037.716737308
2,6, 1, 6, 0, 2, 0.00,60.00,Saturday
12,5040661.17061875
572,7760437.688970784
2,6, 1, 6, 0, 3, 0.00,60.00,Saturday
12,3359963.5458449136
572,8060204.046157836
2,6, 1, 6, 0, 4, 0.00,60.00,Saturday
12,2181812.7422918539
572,8780833.354102858
2,6, 1, 6, 0, 5, 0.00,60.00,Saturday
12,2123220.6417640068
572,9140081.79004018
2,6, 1, 6, 0, 6, 0.00,60.00,Saturday
12,18069390.963568354
572,10095981.891933505
2,6, 1, 6, 0, 7, 0.00,60.00,Saturday
12,6168855.652752036
572,9313376.49651275
2,6, 1, 6, 0, 8, 0.00,60.00,Saturday
12,4330164.935234647
572,9110622.805136208
2,6, 1, 6, 0, 9, 0.00,60.00,Saturday
12,4054168.8441270098
572,7240580.013960568
2,6, 1, 6, 0,10, 0.00,60.00,Saturday
12,6487673.09743844
572,6269313.109515834
2,6, 1, 6, 0,11, 0.00,60.00,Saturday
12,3875402.596067546
572,4836962.692243965
2,6, 1, 6, 0,12, 0.00,60.00,Saturday
12,6073529.622071089
572,3642018.3027708188
2,6, 1, 6, 0,13, 0.00,60.00,Saturday
12,11395256.179989752
572,3997799.3724738245
2,6, 1, 6, 0,14, 0.00,60.00,Saturday
12,6409792.297415528
572,4443533.595412402
2,6, 1, 6, 0,15, 0.00,60.00,Saturday
12,3914280.435523548
572,4170053.4417680429
2,6, 1, 6, 0,16, 0.00,60.00,Saturday
12,5256169.065440193
572,4451701.5305628259
2,6, 1, 6, 0,17, 0.00,60.00,Saturday
12,4925782.078351555
572,6868782.401892661
2,6, 1, 6, 0,18, 0.00,60.00,Saturday
12,8951019.00252481
572,6873545.878814161
2,6, 1, 6, 0,19, 0.00,60.00,Saturday
12,12142147.959757807
572,7424960.087949916
2,6, 1, 6, 0,20, 0.00,60.00,Saturday
12,8291278.698210642
572,8403011.249690878
2,6, 1, 6, 0,21, 0.00,60.00,Saturday
12,10701250.959624382
572,8607091.179373118
2,6, 1, 6, 0,22, 0.00,60.00,Saturday
12,25008043.09606256
572,10437864.91575623
2,6, 1, 6, 0,23, 0.00,60.00,Saturday
12,7626131.399174683
572,11084483.589825619
2,6, 1, 6, 0,24, 0.00,60.00,Saturday
12,4844617.401465599
572,12722293.552054577
2,7, 1, 7, 0, 1, 0.00,60.00,Sunday
12,2806927.3563997789
572,13795896.557097016
2,7, 1, 7, 0, 2, 0.00,60.00,Sunday
12,2492732.3971139055
572,13667531.524096327
2,7, 1, 7, 0, 3, 0.00,60.00,Sunday
12,2426262.236091867
572,15497811.545121588
2,7, 1, 7, 0, 4, 0.00,60.00,Sunday
12,5243083.297842361
572,16528680.919930835
2,7, 1, 7, 0, 5, 0.00,60.00,Sunday
12,15510126.355982317
572,18276527.896400278
2,7, 1, 7, 0, 6, 0.00,60.00,Sunday
12,3029871.7544569165
572,17479327.316840639
2,7, 1, 7, 0, 7, 0.00,60.00,Sunday
12,9100379.398328683
572,17368651.057414116
2,7, 1, 7, 0, 8, 0.00,60.00,Sunday
12,5581572.649116692
572,11971501.229951172
2,7, 1, 7, 0, 9, 0.00,60.00,Sunday
12,4160862.8577049088
572,11186742.585653212
2,7, 1, 7, 0,10, 0.00,60.00,Sunday
12,8165355.470433228
572,10234601.585078154
2,7, 1, 7, 0,11, 0.00,60.00,Sunday
12,4234887.429084262
572,8924056.752332693
2,7, 1, 7, 0,12, 0.00,60.00,Sunday
12,4001429.745432019
572,7707250.200104244
2,7, 1, 7, 0,13, 0.00,60.00,Sunday
12,5292161.252221635
572,7130497.683351601
2,7, 1, 7, 0,14, 0.00,60.00,Sunday
12,3913003.131177603
572,7012858.802501066
2,7, 1, 7, 0,15, 0.00,60.00,Sunday
12,3986932.0886335
572,6857132.357069789
2,7, 1, 7, 0,16, 0.00,60.00,Sunday
12,4124459.037922858
572,6859348.902832876
2,7, 1, 7, 0,17, 0.00,60.00,Sunday
12,11391795.221046137
572,6717078.6670442749
2,7, 1, 7, 0,18, 0.00,60.00,Sunday
12,9513770.444963247
572,5545617.039914054
2,7, 1, 7, 0,19, 0.00,60.00,Sunday
12,7057209.085476483
572,4734103.303275657
2,7, 1, 7, 0,20, 0.00,60.00,Sunday
12,6964929.745523307
572,4942779.955447619
2,7, 1, 7, 0,21, 0.00,60.00,Sunday
12,6509394.493536902
572,6038667.597038628
2,7, 1, 7, 0,22, 0.00,60.00,Sunday
12,7030519.4101268709
572,7226775.360240034
2,7, 1, 7, 0,23, 0.00,60.00,Sunday
12,6166438.190931434
572,7631620.965259422
2,7, 1, 7, 0,24, 0.00,60.00,Sunday
12,3560175.3753632626
572,7402293.3154856539
2,8, 1, 8, 0, 1, 0.00,60.00,Monday
12,2651291.13630793
572,8039567.725416511
2,8, 1, 8, 0, 2, 0.00,60.00,Monday
12,3494107.3371663915
572,8730306.359415463
2,8, 1, 8, 0, 3, 0.00,60.00,Monday
12,2273379.2780515879
572,9843314.290430466
2,8, 1, 8, 0, 4, 0.00,60.00,Monday
12,2283750.6820201415
572,12551088.768644257
2,8, 1, 8, 0, 5, 0.00,60.00,Monday
12,2222459.498118886
572,12810509.468902253
2,8, 1, 8, 0, 6, 0.00,60.00,Monday
12,2638635.4112509789
572,11611354.990130628
2,8, 1, 8, 0, 7, 0.00,60.00,Monday
12,3718463.7697431209
572,12008886.238544347
2,8, 1, 8, 0, 8, 0.00,60.00,Monday
12,5513475.180118798
572,9958563.03869552
2,8, 1, 8, 0, 9, 0.00,60.00,Monday
12,10456874.578954548
572,6636276.332216636
2,8, 1, 8, 0,10, 0.00,60.00,Monday
12,3796498.8092075448
572,4083056.479223209
2,8, 1, 8, 0,11, 0.00,60.00,Monday
12,3842494.057301216
572,3619814.3292388275
2,8, 1, 8, 0,12, 0.00,60.00,Monday
12,5013140.937259748
572,2625566.088850122
2,8, 1, 8, 0,13, 0.00,60.00,Monday
12,4775350.69441957
572,1189817.1979378658
2,8, 1, 8, 0,14, 0.00,60.00,Monday
12,3535355.1498058738
572,191091.6756438571
2,8, 1, 8, 0,15, 0.00,60.00,Monday
12,4999314.496661872
572,286393.30697668177
2,8, 1, 8, 0,16, 0.00,60.00,Monday
12,5456840.958666622
572,116381.61969349129
2,8, 1, 8, 0,17, 0.00,60.00,Monday
12,4808757.79937739
572,2540546.7850929887
2,8, 1, 8, 0,18, 0.00,60.00,Monday
12,7560800.811836502
572,4703810.6212061489
2,8, 1, 8, 0,19, 0.00,60.00,Monday
12,16824866.552734838
572,5822248.045023047
2,8, 1, 8, 0,20, 0.00,60.00,Monday
12,7010479.080422522
572,6627458.1723144
2,8, 1, 8, 0,21, 0.00,60.00,Monday
12,6517429.640329865
572,6335853.863344901
2,8, 1, 8, 0,22, 0.00,60.00,Monday
12,7008161.3370245
572,7714543.282688465
2,8, 1, 8, 0,23, 0.00,60.00,Monday
12,5028711.395157203
572,7643015.546233107
2,8, 1, 8, 0,24, 0.00,60.00,Monday
12,3618936.9046828749
572,9575635.004306585
2,9, 1, 9, 0, 1, 0.00,60.00,Tuesday
12,2727946.655783571
572,10874732.80848439
2,9, 1, 9, 0, 2, 0.00,60.00,Tuesday
12,2426285.158678989
572,11209927.798159464
2,9, 1, 9, 0, 3, 0.00,60.00,Tuesday
12,2320500.580868482
572,11586132.985404948
2,9, 1, 9, 0, 4, 0.00,60.00,Tuesday
12,2265453.5037035739
572,11874353.141038428
2,9, 1, 9, 0, 5, 0.00,60.00,Tuesday
12,3334968.0219199315
572,11984906.882824528
2,9, 1, 9, 0, 6, 0.00,60.00,Tuesday
12,2648857.7821347548
572,11989437.471263135
2,9, 1, 9, 0, 7, 0.00,60.00,Tuesday
12,3708080.73532884
572,11624861.489523963
2,9, 1, 9, 0, 8, 0.00,60.00,Tuesday
12,5534746.444781578
572,9375589.538674124
2,9, 1, 9, 0, 9, 0.00,60.00,Tuesday
12,4040821.0381932107
572,6746900.8428070959
2,9, 1, 9, 0,10, 0.00,60.00,Tuesday
12,5110678.583899523
572,5218156.472505905
2,9, 1, 9, 0,11, 0.00,60.00,Tuesday
12,5091070.227611377
572,4292878.1809310489
2,9, 1, 9, 0,12, 0.00,60.00,Tuesday
12,5027088.9881675229
572,3668158.630854407
2,9, 1, 9, 0,13, 0.00,60.00,Tuesday
12,3787552.6232508046
572,3545436.156984948
2,9, 1, 9, 0,14, 0.00,60.00,Tuesday
12,3797540.56695148
572,3230784.402566645
2,9, 1, 9, 0,15, 0.00,60.00,Tuesday
12,3865603.537553921
572,2369699.828361246
2,9, 1, 9, 0,16, 0.00,60.00,Tuesday
12,5196825.374241266
572,2466366.0211725716
2,9, 1, 9, 0,17, 0.00,60.00,Tuesday
12,4849380.286630215
572,4043001.6407172984
2,9, 1, 9, 0,18, 0.00,60.00,Tuesday
12,7484354.078047674
572,5178472.425123141
2,9, 1, 9, 0,19, 0.00,60.00,Tuesday
12,7079744.331245423
572,5567587.211277276
2,9, 1, 9, 0,20, 0.00,60.00,Tuesday
12,6982895.732778229
572,5607266.219403893
2,9, 1, 9, 0,21, 0.00,60.00,Tuesday
12,6540150.766029338
572,7176212.687755651
2,9, 1, 9, 0,22, 0.00,60.00,Tuesday
12,5824808.731948153
572,7874955.563120172
2,9, 1, 9, 0,23, 0.00,60.00,Tuesday
12,5062340.732395395
572,8886823.211442834
2,9, 1, 9, 0,24, 0.00,60.00,Tuesday
12,9553354.325588335
572,10999514.73487004
2,10, 1,10, 0, 1, 0.00,60.00,Wednesday
12,3290987.1081023316
572,11550709.530784799
2,10, 1,10, 0, 2, 0.00,60.00,Wednesday
12,2452537.4046300586
572,12180887.900989825
2,10, 1,10, 0, 3, 0.00,60.00,Wednesday
12,2338134.2688213789
572,12238328.896563754
2,10, 1,10, 0, 4, 0.00,60.00,Wednesday
12,2304769.2445080729
572,13328476.944599431
2,10, 1,10, 0, 5, 0.00,60.00,Wednesday
12,2246092.18296936
572,13684583.0302784
2,10, 1,10, 0, 6, 0.00,60.00,Wednesday
12,3833392.821680284
572,13829314.002086336
2,10, 1,10, 0, 7, 0.00,60.00,Wednesday
12,3736505.750727071
572,12676183.190740006
2,10, 1,10, 0, 8, 0.00,60.00,Wednesday
12,4398777.927383239
572,11648328.64700082
2,10, 1,10, 0, 9, 0.00,60.00,Wednesday
12,4083246.252520118
572,8316030.986652017
2,10, 1,10, 0,10, 0.00,60.00,Wednesday
12,17333437.68833885
572,6556495.173768536
2,10, 1,10, 0,11, 0.00,60.00,Wednesday
12,13380362.891261248
572,4869558.004046921
2,10, 1,10, 0,12, 0.00,60.00,Wednesday
12,4660116.150130958
572,2561769.356400553
2,10, 1,10, 0,13, 0.00,60.00,Wednesday
12,3726568.885485254
572,1289904.3292631347
2,10, 1,10, 0,14, 0.00,60.00,Wednesday
12,3743686.96765188
572,1238966.3915977719
2,10, 1,10, 0,15, 0.00,60.00,Wednesday
12,4952284.960418508
572,543964.4273312322
2,10, 1,10, 0,16, 0.00,60.00,Wednesday
12,3959595.0592246816
572,761724.1126277759
2,10, 1,10, 0,17, 0.00,60.00,Wednesday
12,4817419.376979998
572,2860902.090897166
2,10, 1,10, 0,18, 0.00,60.00,Wednesday
12,6297057.878064939
572,4726223.635214984
2,10, 1,10, 0,19, 0.00,60.00,Wednesday
12,8303839.281738106
572,5622946.191574227
2,10, 1,10, 0,20, 0.00,60.00,Wednesday
12,17491175.252815077
572,5746887.63321261
2,10, 1,10, 0,21, 0.00,60.00,Wednesday
12,6862440.888440771
572,6335611.9827606319
2,10, 1,10, 0,22, 0.00,60.00,Wednesday
12,5836224.065852683
572,8297160.726154355
2,10, 1,10, 0,23, 0.00,60.00,Wednesday
12,5071602.37605487
572,9229372.435488029
2,10, 1,10, 0,24, 0.00,60.00,Wednesday
12,4858225.323944115
572,11895717.353571522
2,11, 1,11, 0, 1, 0.00,60.00,Thursday
12,2763291.5805847237
572,12181992.838099502
2,11, 1,11, 0, 2, 0.00,60.00,Thursday
12,3653916.210224839
572,13033812.039307516
2,11, 1,11, 0, 3, 0.00,60.00,Thursday
12,2353162.1336131116
572,12794146.374835836
2,11, 1,11, 0, 4, 0.00,60.00,Thursday
12,2307638.402827902
572,13434595.0368362
2,11, 1,11, 0, 5, 0.00,60.00,Thursday
12,2245804.7820207199
572,13673953.278631032
2,11, 1,11, 0, 6, 0.00,60.00,Thursday
12,3807544.9489267098
572,12871698.464429038
2,11, 1,11, 0, 7, 0.00,60.00,Thursday
12,3726205.488208954
572,12295219.82583741
2,11, 1,11, 0, 8, 0.00,60.00,Thursday
12,5595470.665442685
572,11523741.459151017
2,11, 1,11, 0, 9, 0.00,60.00,Thursday
12,15621501.352114572
572,10709302.712257039
2,11, 1,11, 0,10, 0.00,60.00,Thursday
12,5287056.016558368
572,6756325.854831575
2,11, 1,11, 0,11, 0.00,60.00,Thursday
12,4953275.906325491
572,3857464.87990891
2,11, 1,11, 0,12, 0.00,60.00,Thursday
12,8963669.547141172
572,2502819.1274398185
2,11, 1,11, 0,13, 0.00,60.00,Thursday
12,3548565.162642565
572,1363738.220563452
2,11, 1,11, 0,14, 0.00,60.00,Thursday
12,3553777.2930671188
572,872449.2306748896
2,11, 1,11, 0,15, 0.00,60.00,Thursday
12,4855949.970413986
572,1479726.3064764285
2,11, 1,11, 0,16, 0.00,60.00,Thursday
12,4994507.118767266
572,2143096.5050269777
2,11, 1,11, 0,17, 0.00,60.00,Thursday
12,4813555.052480048
572,2717976.989523529
2,11, 1,11, 0,18, 0.00,60.00,Thursday
12,6237839.806977667
572,2535996.3876308395
2,11, 1,11, 0,19, 0.00,60.00,Thursday
12,8128887.594102431
572,2222818.148144848
2,11, 1,11, 0,20, 0.00,60.00,Thursday
12,9612138.33012954
572,3192567.856872779
2,11, 1,11, 0,21, 0.00,60.00,Thursday
12,6449922.180561476
572,3839037.011914344
2,11, 1,11, 0,22, 0.00,60.00,Thursday
12,5708996.009841239
572,3591530.3363573795
2,11, 1,11, 0,23, 0.00,60.00,Thursday
12,6181789.817341966
572,4660945.5869276099
2,11, 1,11, 0,24, 0.00,60.00,Thursday
12,3512885.456149843
572,5653238.209576506
2,12, 1,12, 0, 1, 0.00,60.00,Friday
12,2616691.3989864208
572,6759869.044769804
2,12, 1,12, 0, 2, 0.00,60.00,Friday
12,3478121.164832088
572,8141950.5555032039
2,12, 1,12, 0, 3, 0.00,60.00,Friday
12,2247541.5928029895
572,8887687.04342704
2,12, 1,12, 0, 4, 0.00,60.00,Friday
12,2228177.4393566299
572,10495668.386260512
2,12, 1,12, 0, 5, 0.00,60.00,Friday
12,2185175.8223483387
572,11431543.199595709
2,12, 1,12, 0, 6, 0.00,60.00,Friday
12,7194816.851895606
572,11753230.163157782
2,12, 1,12, 0, 7, 0.00,60.00,Friday
12,13388703.282195393
572,12470647.646250358
2,12, 1,12, 0, 8, 0.00,60.00,Friday
12,4384772.895483892
572,11130341.453125002
2,12, 1,12, 0, 9, 0.00,60.00,Friday
12,4122864.0975624716
572,9781328.35465391
2,12, 1,12, 0,10, 0.00,60.00,Friday
12,3920804.5663310985
572,8680603.330797393
2,12, 1,12, 0,11, 0.00,60.00,Friday
12,20976299.39330959
572,8065321.641239085
2,12, 1,12, 0,12, 0.00,60.00,Friday
12,15923202.622797696
572,6000927.528016928
2,12, 1,12, 0,13, 0.00,60.00,Friday
12,5157819.5938977
572,5919708.965322971
2,12, 1,12, 0,14, 0.00,60.00,Friday
12,5044221.149688457
572,5531537.351784136
2,12, 1,12, 0,15, 0.00,60.00,Friday
12,3946031.029988177
572,5344374.31792322
2,12, 1,12, 0,16, 0.00,60.00,Friday
12,4076736.714727552
572,5094300.993279458
2,12, 1,12, 0,17, 0.00,60.00,Friday
12,6045951.518647797
572,6328309.33560456
2,12, 1,12, 0,18, 0.00,60.00,Friday
12,7626280.88602425
572,6433968.681658058
2,12, 1,12, 0,19, 0.00,60.00,Friday
12,8252260.014149488
572,5672840.138724798
2,12, 1,12, 0,20, 0.00,60.00,Friday
12,8642730.261194762
572,5488104.1897057299
2,12, 1,12, 0,21, 0.00,60.00,Friday
12,7897007.5105005209
572,6875256.947267488
2,12, 1,12, 0,22, 0.00,60.00,Friday
12,9002311.403174779
572,7714190.013267005
2,12, 1,12, 0,23, 0.00,60.00,Friday
12,5052167.29432699
572,8510550.54923147
2,12, 1,12, 0,24, 0.00,60.00,Friday
12,4742689.913377658
572,9165259.324944556
2,13, 1,13, 0, 1, 0.00,60.00,Saturday
12,2676666.173309754
572,8978083.560691594
2,13, 1,13, 0, 2, 0.00,60.00,Saturday
12,5059568.407324035
572,8259694.707735975
2,13, 1,13, 0, 3, 0.00,60.00,Saturday
12,2244400.2292796128
572,8771501.226207046
2,13, 1,13, 0, 4, 0.00,60.00,Saturday
12,2175558.1690569587
572,8549503.010686417
2,13, 1,13, 0, 5, 0.00,60.00,Saturday
12,2104476.691405099
572,8446821.944697675
2,13, 1,13, 0, 6, 0.00,60.00,Saturday
12,18403420.73060968
572,9610750.927539777
2,13, 1,13, 0, 7, 0.00,60.00,Saturday
12,6407326.94382582
572,8733956.086214707
2,13, 1,13, 0, 8, 0.00,60.00,Saturday
12,4275148.871864804
572,7075810.14009915
2,13, 1,13, 0, 9, 0.00,60.00,Saturday
12,3961034.265461007
572,3795923.8787425698
2,13, 1,13, 0,10, 0.00,60.00,Saturday
12,6378141.638578822
572,2029235.1177047054
2,13, 1,13, 0,11, 0.00,60.00,Saturday
12,3771122.185001658
572,980069.1205302901
2,13, 1,13, 0,12, 0.00,60.00,Saturday
12,5976266.471296062
572,0.0
2,13, 1,13, 0,13, 0.00,60.00,Saturday
12,11308704.325378485
572,0.0
2,13, 1,13, 0,14, 0.00,60.00,Saturday
12,6150076.744282069
572,0.0
2,13, 1,13, 0,15, 0.00,60.00,Saturday
12,3801532.992798267
572,0.0
2,13, 1,13, 0,16, 0.00,60.00,Saturday
12,5136530.1041053789
572,0.0
2,13, 1,13, 0,17, 0.00,60.00,Saturday
12,4741040.799009123
572,35979.90866322578
2,13, 1,13, 0,18, 0.00,60.00,Saturday
12,8817491.02296698
572,1772312.01608049
2,13, 1,13, 0,19, 0.00,60.00,Saturday
12,12022240.015084397
572,1919449.269256361
2,13, 1,13, 0,20, 0.00,60.00,Saturday
12,8113331.2073771669
572,1769245.7080819254
2,13, 1,13, 0,21, 0.00,60.00,Saturday
12,10535716.001299626
572,2321486.513337354
2,13, 1,13, 0,22, 0.00,60.00,Saturday
12,24954169.18015276
572,4072007.1122086925
2,13, 1,13, 0,23, 0.00,60.00,Saturday
12,7663637.248225751
572,5359184.372949918
2,13, 1,13, 0,24, 0.00,60.00,Saturday
12,4663431.084264241
572,6018284.897985145
2,14, 1,14, 0, 1, 0.00,60.00,Sunday
12,2593534.426266373
572,5903390.07320278
2,14, 1,14, 0, 2, 0.00,60.00,Sunday
12,2269656.4945293336
572,5416892.637191262
2,14, 1,14, 0, 3, 0.00,60.00,Sunday
12,2164052.7740273417
572,5799786.9751936229
2,14, 1,14, 0, 4, 0.00,60.00,Sunday
12,4971020.102298213
572,6146318.815217964
2,14, 1,14, 0, 5, 0.00,60.00,Sunday
12,15277206.653000744
572,6977283.152724433
2,14, 1,14, 0, 6, 0.00,60.00,Sunday
12,2821508.2054221776
572,6180176.479700185
2,14, 1,14, 0, 7, 0.00,60.00,Sunday
12,8836939.949615095
572,6405473.008206339
2,14, 1,14, 0, 8, 0.00,60.00,Sunday
12,5410358.0362874739
572,5621630.831995547
2,14, 1,14, 0, 9, 0.00,60.00,Sunday
12,3963528.966849281
572,3888192.3848735939
2,14, 1,14, 0,10, 0.00,60.00,Sunday
12,8051988.935282973
572,2617242.2927706155
2,14, 1,14, 0,11, 0.00,60.00,Sunday
12,3654365.5619119016
572,1161611.8749604454
2,14, 1,14, 0,12, 0.00,60.00,Sunday
12,3613045.6653140357
572,0.0
2,14, 1,14, 0,13, 0.00,60.00,Sunday
12,4920421.363568421
572,0.0
2,14, 1,14, 0,14, 0.00,60.00,Sunday
12,3543393.595660419
572,0.0
2,14, 1,14, 0,15, 0.00,60.00,Sunday
12,3624300.8922541064
572,102372.95297610466
2,14, 1,14, 0,16, 0.00,60.00,Sunday
12,3785616.360439619
572,984426.7056830691
2,14, 1,14, 0,17, 0.00,60.00,Sunday
12,11230064.319476586
572,1907114.4006683357
2,14, 1,14, 0,18, 0.00,60.00,Sunday
12,9330589.48085807
572,1689544.6429283387
2,14, 1,14, 0,19, 0.00,60.00,Sunday
12,6983215.943455732
572,1997408.3584272236
2,14, 1,14, 0,20, 0.00,60.00,Sunday
12,6904798.211932603
572,2718767.5739013624
2,14, 1,14, 0,21, 0.00,60.00,Sunday
12,6458087.806670958
572,4141049.159054595
2,14, 1,14, 0,22, 0.00,60.00,Sunday
12,6978459.090940642
572,5257491.816512638
2,14, 1,14, 0,23, 0.00,60.00,Sunday
12,6124536.195974213
572,6078934.581821739
2,14, 1,14, 0,24, 0.00,60.00,Sunday
12,3569649.16201445
572,7752688.816052548
2,15, 1,15, 0, 1, 0.00,60.00,Monday
12,3795320.0853679284
572,8380154.03352442
2,15, 1,15, 0, 2, 0.00,60.00,Monday
12,2371787.1263378125
572,9194274.920890684
2,15, 1,15, 0, 3, 0.00,60.00,Monday
12,2265116.8272029028
572,9537721.003645683
2,15, 1,15, 0, 4, 0.00,60.00,Monday
12,2220846.3929225199
572,10224523.829227757
2,15, 1,15, 0, 5, 0.00,60.00,Monday
12,2159352.9464173067
572,10476463.68692838
2,15, 1,15, 0, 6, 0.00,60.00,Monday
12,2598074.9683704825
572,10111194.894743173
2,15, 1,15, 0, 7, 0.00,60.00,Monday
12,3687742.22527804
572,10872625.591416479
2,15, 1,15, 0, 8, 0.00,60.00,Monday
12,5496519.101751254
572,9318864.310037384
2,15, 1,15, 0, 9, 0.00,60.00,Monday
12,10430788.972850092
572,4915829.08608517
2,15, 1,15, 0,10, 0.00,60.00,Monday
12,3750434.588041851
572,2379334.7861076479
2,15, 1,15, 0,11, 0.00,60.00,Monday
12,3590385.871149255
572,952835.969691428
2,15, 1,15, 0,12, 0.00,60.00,Monday
12,4762345.911263908
572,0.0
2,15, 1,15, 0,13, 0.00,60.00,Monday
12,4744337.10329089
572,0.0
2,15, 1,15, 0,14, 0.00,60.00,Monday
12,3530188.525911049
572,0.0
2,15, 1,15, 0,15, 0.00,60.00,Monday
12,4812141.910316984
572,0.0
2,15, 1,15, 0,16, 0.00,60.00,Monday
12,5274803.078517127
572,0.0
2,15, 1,15, 0,17, 0.00,60.00,Monday
12,4740067.995483241
572,0.0
2,15, 1,15, 0,18, 0.00,60.00,Monday
12,7958276.222931477
572,371129.91737348426
2,15, 1,15, 0,19, 0.00,60.00,Monday
12,15853674.226610166
572,2311551.030774668
2,15, 1,15, 0,20, 0.00,60.00,Monday
12,6894141.873438985
572,2324634.4571065527
2,15, 1,15, 0,21, 0.00,60.00,Monday
12,6439999.120630649
572,3472024.7833687809
2,15, 1,15, 0,22, 0.00,60.00,Monday
12,6915522.790270256
572,4254855.555079472
2,15, 1,15, 0,23, 0.00,60.00,Monday
12,4986038.500910746
572,6064724.764452551
2,15, 1,15, 0,24, 0.00,60.00,Monday
12,4676129.577072714
572,6705745.85602394
2,16, 1,16, 0, 1, 0.00,60.00,Tuesday
12,2607173.286009242
572,6407834.099938889
2,16, 1,16, 0, 2, 0.00,60.00,Tuesday
12,2307740.1936110195
572,6825448.40211268
2,16, 1,16, 0, 3, 0.00,60.00,Tuesday
12,2167153.2348330237
572,5914459.97301323
2,16, 1,16, 0, 4, 0.00,60.00,Tuesday
12,2172289.8726447515
572,8428622.480068515
2,16, 1,16, 0, 5, 0.00,60.00,Tuesday
12,2133487.0326424457
572,9519792.385529999
2,16, 1,16, 0, 6, 0.00,60.00,Tuesday
12,2582000.1735708846
572,9516655.881178929
2,16, 1,16, 0, 7, 0.00,60.00,Tuesday
12,3645360.668749899
572,9305110.165826848
2,16, 1,16, 0, 8, 0.00,60.00,Tuesday
12,5510745.416741867
572,8446622.12436267
2,16, 1,16, 0, 9, 0.00,60.00,Tuesday
12,4069050.3982505917
572,7790986.076323399