Program Version,EnergyPlus, Version 9.3.0-baff08990c, YMD=2020.04.27 17:57
1,5,Environment Title[],Latitude[deg],Longitude[deg],Time Zone[],Elevation[m]
2,8,Day of Simulation[],Month[],Day of Month[],DST Indicator[1=yes 0=no],Hour[],StartMinute[],EndMinute[],DayType
3,5,Cumulative Day of Simulation[],Month[],Day of Month[],DST Indicator[1=yes 0=no],DayType  ! When Daily Report Variables Requested
4,2,Cumulative Days of Simulation[],Month[]  ! When Monthly Report Variables Requested
5,1,Cumulative Days of Simulation[] ! When Run Period Report Variables Requested
6,1,Calendar Year of Simulation[] ! When Annual Report Variables Requested
298,9,EMS,central ac supply fan clg disaggregate [J] !Monthly [Value,Min,Day,Hour,Minute,Max,Day,Hour,Minute]
299,11,EMS,central ac supply fan clg disaggregate [J] !RunPeriod [Value,Min,Month,Day,Hour,Minute,Max,Month,Day,Hour,Minute]
300,1,EMS,central ac supply fan clg disaggregate [J] !Hourly
301,9,EMS,furnace supply fan htg primary disaggregate [J] !Monthly [Value,Min,Day,Hour,Minute,Max,Day,Hour,Minute]
302,11,EMS,furnace supply fan htg primary disaggregate [J] !RunPeriod [Value,Min,Month,Day,Hour,Minute,Max,Month,Day,Hour,Minute]
303,1,EMS,furnace supply fan htg primary disaggregate [J] !Hourly
304,11,EMS,water heater EC adjustment outvar [J] !RunPeriod [Value,Min,Month,Day,Hour,Minute,Max,Month,Day,Hour,Minute]
305,1,EMS,water heater EC adjustment outvar [J] !Hourly
306,11,EMS,loads_htg_roofs_annual_outvar [J] !RunPeriod [Value,Min,Month,Day,Hour,Minute,Max,Month,Day,Hour,Minute]
307,11,EMS,loads_htg_ceilings_annual_outvar [J] !RunPeriod [Value,Min,Month,Day,Hour,Minute,Max,Month,Day,Hour,Minute]
308,11,EMS,loads_htg_walls_annual_outvar [J] !RunPeriod [Value,Min,Month,Day,Hour,Minute,Max,Month,Day,Hour,Minute]
309,11,EMS,loads_htg_rim_joists_annual_outvar [J] !RunPeriod [Value,Min,Month,Day,Hour,Minute,Max,Month,Day,Hour,Minute]
310,11,EMS,loads_htg_foundation_walls_annual_outvar [J] !RunPeriod [Value,Min,Month,Day,Hour,Minute,Max,Month,Day,Hour,Minute]
311,11,EMS,loads_htg_doors_annual_outvar [J] !RunPeriod [Value,Min,Month,Day,Hour,Minute,Max,Month,Day,Hour,Minute]
312,11,EMS,loads_htg_windows_annual_outvar [J] !RunPeriod [Value,Min,Month,Day,Hour,Minute,Max,Month,Day,Hour,Minute]
313,11,EMS,loads_htg_skylights_annual_outvar [J] !RunPeriod [Value,Min,Month,Day,Hour,Minute,Max,Month,Day,Hour,Minute]
314,11,EMS,loads_htg_floors_annual_outvar [J] !RunPeriod [Value,Min,Month,Day,Hour,Minute,Max,Month,Day,Hour,Minute]
315,11,EMS,loads_htg_slabs_annual_outvar [J] !RunPeriod [Value,Min,Month,Day,Hour,Minute,Max,Month,Day,Hour,Minute]
316,11,EMS,loads_htg_internal_mass_annual_outvar [J] !RunPeriod [Value,Min,Month,Day,Hour,Minute,Max,Month,Day,Hour,Minute]
317,11,EMS,loads_htg_infil_annual_outvar [J] !RunPeriod [Value,Min,Month,Day,Hour,Minute,Max,Month,Day,Hour,Minute]
318,11,EMS,loads_htg_natvent_annual_outvar [J] !RunPeriod [Value,Min,Month,Day,Hour,Minute,Max,Month,Day,Hour,Minute]
319,11,EMS,loads_htg_mechvent_annual_outvar [J] !RunPeriod [Value,Min,Month,Day,Hour,Minute,Max,Month,Day,Hour,Minute]
320,11,EMS,loads_htg_whf_annual_outvar [J] !RunPeriod [Value,Min,Month,Day,Hour,Minute,Max,Month,Day,Hour,Minute]
321,11,EMS,loads_htg_ducts_annual_outvar [J] !RunPeriod [Value,Min,Month,Day,Hour,Minute,Max,Month,Day,Hour,Minute]
322,11,EMS,loads_htg_intgains_annual_outvar [J] !RunPeriod [Value,Min,Month,Day,Hour,Minute,Max,Month,Day,Hour,Minute]
323,11,EMS,loads_clg_roofs_annual_outvar [J] !RunPeriod [Value,Min,Month,Day,Hour,Minute,Max,Month,Day,Hour,Minute]
324,11,EMS,loads_clg_ceilings_annual_outvar [J] !RunPeriod [Value,Min,Month,Day,Hour,Minute,Max,Month,Day,Hour,Minute]
325,11,EMS,loads_clg_walls_annual_outvar [J] !RunPeriod [Value,Min,Month,Day,Hour,Minute,Max,Month,Day,Hour,Minute]
326,11,EMS,loads_clg_rim_joists_annual_outvar [J] !RunPeriod [Value,Min,Month,Day,Hour,Minute,Max,Month,Day,Hour,Minute]
327,11,EMS,loads_clg_foundation_walls_annual_outvar [J] !RunPeriod [Value,Min,Month,Day,Hour,Minute,Max,Month,Day,Hour,Minute]
328,11,EMS,loads_clg_doors_annual_outvar [J] !RunPeriod [Value,Min,Month,Day,Hour,Minute,Max,Month,Day,Hour,Minute]
329,11,EMS,loads_clg_windows_annual_outvar [J] !RunPeriod [Value,Min,Month,Day,Hour,Minute,Max,Month,Day,Hour,Minute]
330,11,EMS,loads_clg_skylights_annual_outvar [J] !RunPeriod [Value,Min,Month,Day,Hour,Minute,Max,Month,Day,Hour,Minute]
331,11,EMS,loads_clg_floors_annual_outvar [J] !RunPeriod [Value,Min,Month,Day,Hour,Minute,Max,Month,Day,Hour,Minute]
332,11,EMS,loads_clg_slabs_annual_outvar [J] !RunPeriod [Value,Min,Month,Day,Hour,Minute,Max,Month,Day,Hour,Minute]
333,11,EMS,loads_clg_internal_mass_annual_outvar [J] !RunPeriod [Value,Min,Month,Day,Hour,Minute,Max,Month,Day,Hour,Minute]
334,11,EMS,loads_clg_infil_annual_outvar [J] !RunPeriod [Value,Min,Month,Day,Hour,Minute,Max,Month,Day,Hour,Minute]
335,11,EMS,loads_clg_natvent_annual_outvar [J] !RunPeriod [Value,Min,Month,Day,Hour,Minute,Max,Month,Day,Hour,Minute]
336,11,EMS,loads_clg_mechvent_annual_outvar [J] !RunPeriod [Value,Min,Month,Day,Hour,Minute,Max,Month,Day,Hour,Minute]
337,11,EMS,loads_clg_whf_annual_outvar [J] !RunPeriod [Value,Min,Month,Day,Hour,Minute,Max,Month,Day,Hour,Minute]
338,11,EMS,loads_clg_ducts_annual_outvar [J] !RunPeriod [Value,Min,Month,Day,Hour,Minute,Max,Month,Day,Hour,Minute]
339,11,EMS,loads_clg_intgains_annual_outvar [J] !RunPeriod [Value,Min,Month,Day,Hour,Minute,Max,Month,Day,Hour,Minute]
340,11,EMS,loads_htg_tot_annual_outvar [J] !RunPeriod [Value,Min,Month,Day,Hour,Minute,Max,Month,Day,Hour,Minute]
341,11,EMS,loads_clg_tot_annual_outvar [J] !RunPeriod [Value,Min,Month,Day,Hour,Minute,Max,Month,Day,Hour,Minute]
464,1,ATTIC - VENTED,Zone Mean Air Temperature [C] !Hourly
465,1,LIVING SPACE,Zone Mean Air Temperature [C] !Hourly
779,11,CENTRAL AC CLG COIL,Cooling Coil Electric Energy [J] !RunPeriod [Value,Min,Month,Day,Hour,Minute,Max,Month,Day,Hour,Minute]
804,1,CENTRAL AC CLG COIL,Cooling Coil Electric Energy [J] !Hourly
805,11,FURNACE HTG COIL,Heating Coil Heating Energy [J] !RunPeriod [Value,Min,Month,Day,Hour,Minute,Max,Month,Day,Hour,Minute]
818,1,FURNACE HTG COIL,Heating Coil Heating Energy [J] !Hourly
819,11,FURNACE HTG COIL,Heating Coil Gas Energy [J] !RunPeriod [Value,Min,Month,Day,Hour,Minute,Max,Month,Day,Hour,Minute]
868,1,FURNACE HTG COIL,Heating Coil Gas Energy [J] !Hourly
1080,11,CLOTHES WASHER,Water Use Equipment Hot Water Volume [m3] !RunPeriod [Value,Min,Month,Day,Hour,Minute,Max,Month,Day,Hour,Minute]
1216,11,DISHWASHER,Water Use Equipment Hot Water Volume [m3] !RunPeriod [Value,Min,Month,Day,Hour,Minute,Max,Month,Day,Hour,Minute]
1256,11,DHW FIXTURES,Water Use Equipment Hot Water Volume [m3] !RunPeriod [Value,Min,Month,Day,Hour,Minute,Max,Month,Day,Hour,Minute]
1296,11,DHW DISTRIBUTION WASTE,Water Use Equipment Hot Water Volume [m3] !RunPeriod [Value,Min,Month,Day,Hour,Minute,Max,Month,Day,Hour,Minute]
1336,11,WATER USE CONNECTIONS 1,Water Use Connections Plant Hot Water Energy [J] !RunPeriod [Value,Min,Month,Day,Hour,Minute,Max,Month,Day,Hour,Minute]
1385,1,WATER USE CONNECTIONS 1,Water Use Connections Plant Hot Water Energy [J] !Hourly
1386,11,WATER HEATER,Water Heater Heat Loss Energy [J] !RunPeriod [Value,Min,Month,Day,Hour,Minute,Max,Month,Day,Hour,Minute]
1387,1,WATER HEATER,Water Heater Heat Loss Energy [J] !Hourly
1391,11,WATER HEATER,Water Heater Electric Energy [J] !RunPeriod [Value,Min,Month,Day,Hour,Minute,Max,Month,Day,Hour,Minute]
1416,1,WATER HEATER,Water Heater Electric Energy [J] !Hourly
1418,11,WATER HEATER,Water Heater Off Cycle Parasitic Electric Energy [J] !RunPeriod [Value,Min,Month,Day,Hour,Minute,Max,Month,Day,Hour,Minute]
1419,1,WATER HEATER,Water Heater Off Cycle Parasitic Electric Energy [J] !Hourly
1421,11,WATER HEATER,Water Heater On Cycle Parasitic Electric Energy [J] !RunPeriod [Value,Min,Month,Day,Hour,Minute,Max,Month,Day,Hour,Minute]
1422,1,WATER HEATER,Water Heater On Cycle Parasitic Electric Energy [J] !Hourly
1449,11,CENTRAL AC CLG COIL,Cooling Coil Crankcase Heater Electric Energy [J] !RunPeriod [Value,Min,Month,Day,Hour,Minute,Max,Month,Day,Hour,Minute]
1450,1,CENTRAL AC CLG COIL,Cooling Coil Crankcase Heater Electric Energy [J] !Hourly
16,11,Electricity:Facility [J] !RunPeriod [Value,Min,Month,Day,Hour,Minute,Max,Month,Day,Hour,Minute]
825,11,Gas:Facility [J] !RunPeriod [Value,Min,Month,Day,Hour,Minute,Max,Month,Day,Hour,Minute]
107,11,interior lighting:InteriorLights:Electricity [J] !RunPeriod [Value,Min,Month,Day,Hour,Minute,Max,Month,Day,Hour,Minute]
28,11,ExteriorLights:Electricity [J] !RunPeriod [Value,Min,Month,Day,Hour,Minute,Max,Month,Day,Hour,Minute]
219,11,mech vent:InteriorEquipment:Electricity [J] !RunPeriod [Value,Min,Month,Day,Hour,Minute,Max,Month,Day,Hour,Minute]
270,11,whole house fan:InteriorEquipment:Electricity [J] !RunPeriod [Value,Min,Month,Day,Hour,Minute,Max,Month,Day,Hour,Minute]
204,11,fridge:InteriorEquipment:Electricity [J] !RunPeriod [Value,Min,Month,Day,Hour,Minute,Max,Month,Day,Hour,Minute]
189,11,dishwasher:InteriorEquipment:Electricity [J] !RunPeriod [Value,Min,Month,Day,Hour,Minute,Max,Month,Day,Hour,Minute]
159,11,clothes washer:InteriorEquipment:Electricity [J] !RunPeriod [Value,Min,Month,Day,Hour,Minute,Max,Month,Day,Hour,Minute]
144,11,clothes dryer:InteriorEquipment:Electricity [J] !RunPeriod [Value,Min,Month,Day,Hour,Minute,Max,Month,Day,Hour,Minute]
174,11,cooking range:InteriorEquipment:Electricity [J] !RunPeriod [Value,Min,Month,Day,Hour,Minute,Max,Month,Day,Hour,Minute]
255,11,misc tv:InteriorEquipment:Electricity [J] !RunPeriod [Value,Min,Month,Day,Hour,Minute,Max,Month,Day,Hour,Minute]
240,11,misc plug loads:InteriorEquipment:Electricity [J] !RunPeriod [Value,Min,Month,Day,Hour,Minute,Max,Month,Day,Hour,Minute]
646,11,Heating:DistrictHeating [J] !RunPeriod [Value,Min,Month,Day,Hour,Minute,Max,Month,Day,Hour,Minute]
695,11,Cooling:DistrictCooling [J] !RunPeriod [Value,Min,Month,Day,Hour,Minute,Max,Month,Day,Hour,Minute]
12,1,Electricity:Facility [J] !Hourly
821,1,Gas:Facility [J] !Hourly
103,1,interior lighting:InteriorLights:Electricity [J] !Hourly
24,1,ExteriorLights:Electricity [J] !Hourly
215,1,mech vent:InteriorEquipment:Electricity [J] !Hourly
266,1,whole house fan:InteriorEquipment:Electricity [J] !Hourly
200,1,fridge:InteriorEquipment:Electricity [J] !Hourly
185,1,dishwasher:InteriorEquipment:Electricity [J] !Hourly
155,1,clothes washer:InteriorEquipment:Electricity [J] !Hourly
140,1,clothes dryer:InteriorEquipment:Electricity [J] !Hourly
170,1,cooking range:InteriorEquipment:Electricity [J] !Hourly
251,1,misc tv:InteriorEquipment:Electricity [J] !Hourly
236,1,misc plug loads:InteriorEquipment:Electricity [J] !Hourly
End of Data Dictionary
1,RUN PERIOD 1,  39.83,-104.65,  -7.00,1650.00
2,1, 1, 1, 0, 1, 0.00,60.00,Monday
464,-12.82424476418646
465,20.002285548636594
300,0.0
303,247110.04630745975
305,0.0
804,0.0
818,9591535.151193746
868,12296839.937427879
1385,0.0
1387,-136095.1184722848
1416,0.0
1419,0.0
1422,0.0
1450,180000.0
12,2681032.0974669039
24,31520.721656648944
103,350751.86013675309
140,96538.02982053661
155,0.0
170,33823.53604600406
185,0.0
200,227930.72181057043
215,0.0
236,1208423.3329248299
251,304933.84876410107
266,0.0
821,12296839.937427879
2,1, 1, 1, 0, 2, 0.00,60.00,Monday
464,-13.5943146684479
465,20.00011516470046
300,0.0
303,293316.9284727341
305,0.0
804,0.0
818,11385047.560494433
868,14596214.821146708
1385,0.0
1387,-135300.6728871593
1416,0.0
1419,0.0
1422,0.0
1450,180000.0
12,2416514.6783146678
24,18912.432993989292
103,210451.11608205099
140,57922.81789232189
155,0.0
170,33823.53604600406
185,0.0
200,222232.45376530625
215,0.0
236,1117791.5829554678
251,282063.8101067935
266,0.0
821,14596214.821146708
2,1, 1, 1, 0, 3, 0.00,60.00,Monday
464,-13.957494915789733
465,20.000006357449974
300,0.0
303,320808.7280152323
305,0.0
804,0.0
818,12452137.165396033
868,15964278.417174403
1385,0.0
1387,-134305.87073426549
1416,0.0
1419,0.0
1422,0.0
1450,180000.0
12,2328050.2863265408
24,12608.288662659528
103,140300.74405470069
140,38615.211928214565
155,0.0
170,19327.734883430905
185,0.0
200,216534.18572004169
215,0.0
236,1117791.5829554678
251,282063.8101067935
266,0.0
821,15964278.417174403
2,1, 1, 1, 0, 4, 0.00,60.00,Monday
464,-15.10420749692926
465,20.000000375187655
300,0.0
303,341278.2260579875
305,0.0
804,0.0
818,13246657.311129384
868,16982893.988627417
1385,0.0
1387,-133309.93452364335
1416,0.0
1419,0.0
1422,0.0
1450,180000.0
12,2285679.9808177019
24,12608.288662659528
103,140300.74405470069
140,19307.60596410732
155,0.0
170,19327.734883430905
185,0.0
200,210835.9176747775
215,0.0
236,1087580.999632347
251,274440.4638876909
266,0.0
821,16982893.988627417
2,1, 1, 1, 0, 5, 0.00,60.00,Monday
464,-15.200360545124456
465,20.00000002287884
300,0.0
303,350220.53118022918
305,0.0
804,0.0
818,13593751.390040135
868,17427886.397487355
1385,0.0
1387,-132321.0446875588
1416,0.0
1419,0.0
1422,0.0
1450,180000.0
12,2226317.0383216317
24,14017.579698740728
103,155982.85494556168
140,38615.211928214565
155,0.0
170,33823.53604600406
185,0.0
200,205137.64962951334
215,0.0
236,996949.2496629846
251,251570.42523038339
266,0.0
821,17427886.397487355
2,1, 1, 1, 0, 6, 0.00,60.00,Monday
464,-14.402217886203259
465,20.00000000137681
300,0.0
303,340697.20919684288
305,0.0
804,0.0
818,13224105.23876171
868,16953981.075335526
1385,0.0
1387,-131339.55259742883
1416,0.0
1419,0.0
1422,0.0
1450,180000.0
12,2665391.66021936
24,38462.59422001201
103,427998.6548311974
140,57922.81789232189
155,0.0
170,53151.2709294349
185,0.0
200,205137.64962951334
215,0.0
236,1087580.999632347
251,274440.4638876909
266,0.0
821,16953981.075335526
2,1, 1, 1, 0, 7, 0.00,60.00,Monday
464,-13.39333932380011
465,20.000000000080449
300,0.0
303,328202.71621194019
305,0.0
804,0.0
818,12739133.581591899
868,16332222.540502433
1385,142261.28444697153
1387,-129844.92612510386
1416,0.0
1419,0.0
1422,0.0
1450,180000.0
12,3721977.3105567165
24,90299.55374739846
103,1004822.6938274336
140,154460.8477128584
155,0.0
170,120798.34302144323
185,0.0
200,216534.18572004169
215,0.0
236,1299055.0828941924
251,327803.8874214086
266,0.0
821,16332222.540502433
2,1, 1, 1, 0, 8, 0.00,60.00,Monday
464,-8.917043899724862
465,20.000000000004467
300,0.0
303,308382.9555271604
305,0.0
804,0.0
818,11969832.882826362
868,15345939.59336713
1385,351616.62267909166
1387,-134406.44460390975
1416,1153706.632632861
1419,0.0
1422,0.0
1450,180000.0
12,5545926.883411663
24,114271.75744381984
103,1271577.215811016
140,308921.6954257168
155,0.0
170,202941.21627602424
185,0.0
200,227930.72181057043
215,0.0
236,1419897.4161866753
251,358297.2722978187
266,0.0
821,15345939.59336713
2,1, 1, 1, 0, 9, 0.00,60.00,Monday
464,-6.914751817280948
465,20.000000000000225
300,0.0
303,273925.1521569643
305,0.0
804,0.0
818,10632359.003488655
868,13631229.49165212
1385,5188997.1256071119
1387,-132424.051381773
1416,4617918.3308120169
1419,0.0
1422,0.0
1450,180000.0
12,10129461.492293887
24,121438.7837423188
103,1351329.444621973
140,463382.54313857536
155,1379215.6923711585
170,222268.95115945536
185,0.0
200,233628.98985583458
215,0.0
236,1027159.8329861055
251,259193.77144948589
266,0.0
821,13631229.49165212
2,1, 1, 1, 0,10, 0.00,60.00,Monday
464,-2.7955613244193819
465,20.00000000000001
300,0.0
303,181873.35736662398
305,0.0
804,0.0
818,7059383.972099294
868,9050492.271922172
1385,0.0
1387,-135346.6785088769
1416,1133158.943034821
1419,0.0
1422,0.0
1450,180000.0
12,5001135.839389114
24,124830.57748974454
103,1389072.1707901357
140,656458.6027796477
155,0.0
170,231932.81860117054
185,0.0
200,233628.98985583458
215,0.0
236,694843.4164317773
251,175336.9630393581
266,0.0
821,9050492.271922172
2,1, 1, 1, 0,11, 0.00,60.00,Monday
464,1.179654060394678
465,20.000000000000005
300,0.0
303,120241.35884618692
305,0.0
804,0.0
818,4667148.249268437
868,5983523.396497996
1385,0.0
1387,-135474.23937535133
1416,0.0
1419,0.0
1422,0.0
1450,180000.0
12,3864865.013654679
24,121436.52005279417
103,1351304.25505556
140,752996.6326001843
155,0.0
170,202941.21627602424
185,0.0
200,227930.72181057043
215,0.0
236,725053.9997548979
251,182960.30925846063
266,0.0
821,5983523.396497996
2,1, 1, 1, 0,12, 0.00,60.00,Monday
464,2.968791002184953
465,20.000000000000005
300,0.0
303,86764.35233700848
305,0.0
804,0.0
818,3367743.8361835379
868,4317620.302799407
1385,199266.3413295325
1387,-133723.0163421369
1416,0.0
1419,0.0
1422,0.0
1450,180000.0
12,3879810.017651044
24,116734.14550150292
103,1298977.8318571493
140,781958.0415463452
155,0.0
170,241596.68604288577
185,0.0
200,227930.72181057043
215,0.0
236,755264.5830780187
251,190583.65547756313
266,0.0
821,4317620.302799407
2,1, 1, 1, 0,13, 0.00,60.00,Monday
464,4.525593490400539
465,20.0
300,0.0
303,81572.590088062
305,0.0
804,0.0
818,3166226.4521211658
868,4059264.682206623
1385,1259164.8375306954
1387,-132503.31994103085
1416,1210288.3159568483
1419,0.0
1422,0.0
1450,180000.0
12,4983554.11990735
24,113340.08806455229
103,1261209.916122571
140,714381.4206719695
155,0.0
170,275420.22208889006
185,0.0
200,239327.25790109879
215,0.0
236,725053.9997548979
251,182960.30925846063
266,0.0
821,4059264.682206623
2,1, 1, 1, 0,14, 0.00,60.00,Monday
464,3.4896967237830625
465,20.000000000000005
300,0.0
303,81807.44178583285
305,0.0
804,0.0
818,3175342.1815224864
868,4070951.5147724177
1385,0.0
1387,-130648.01002675583
1416,0.0
1419,0.0
1422,0.0
1450,180000.0
12,3791995.967696882
24,112341.33688407114
103,1250096.1529865785
140,646804.7997975946
155,0.0
170,222268.95115945536
185,0.0
200,239327.25790109879
215,0.0
236,845896.3330473809
251,213453.69413487073
266,0.0
821,4070951.5147724177
2,1, 1, 1, 0,15, 0.00,60.00,Monday
464,4.046309102118514
465,20.0
300,0.0
303,64698.00110376536
305,0.0
804,0.0
818,2511242.100722329
868,3219541.154772217
1385,743088.1700998218
1387,-133066.04508497928
1416,1177439.0483059278
1419,0.0
1422,0.0
1450,180000.0
12,5043670.04220796
24,114091.83433341766
103,1269575.0926888814
140,550266.7699770579
155,0.0
170,275420.22208889006
185,0.0
200,239327.25790109879
215,0.0
236,936528.0830167432
251,236323.73279217829
266,0.0
821,3219541.154772217
2,1, 1, 1, 0,16, 0.00,60.00,Monday
464,2.438469474683042
465,20.0
300,0.0
303,64125.424665158054
305,0.0
804,0.0
818,2489017.6419449059
868,3191048.2589037257
1385,1467785.9602037867
1387,-132227.7871561307
1416,1224324.912909425
1419,0.0
1422,0.0
1450,180000.0
12,5494410.020046284
24,124772.48411455617
103,1388425.7274875076
140,588881.981905272
155,266959.670039647
170,212605.08371773945
185,0.0
200,233628.98985583458
215,0.0
236,966738.6663398639
251,243947.07901128083
266,0.0
821,3191048.2589037257
2,1, 1, 1, 0,17, 0.00,60.00,Monday
464,-0.14682433832713075
465,20.0
300,0.0
303,98086.7141340788
305,0.0
804,0.0
818,3807219.417180402
868,4881050.534846669
1385,0.0
1387,-129123.67262997583
1416,0.0
1419,0.0
1422,0.0
1450,180000.0
12,4838154.7096173199
24,153230.21491511088
103,1705093.6680979355
140,530959.1640129502
155,0.0
170,444537.90231891
185,0.0
200,250723.79399162753
215,0.0
236,1178212.7496017093
251,297310.5025449985
266,0.0
821,4881050.534846669
2,1, 1, 1, 0,18, 0.00,60.00,Monday
464,-2.019332479444621
465,19.999999999999998
300,0.0
303,136849.50078764204
305,0.0
804,0.0
818,5311790.503227145
868,6809987.824650186
1385,1631909.3070400824
1387,-133156.22392269667
1416,2470963.067119136
1419,0.0
1422,0.0
1450,180000.0
12,8777085.601950068
24,203210.06438551093
103,2261252.418587706
140,521305.36103089709
155,0.0
170,724790.058128658
185,0.0
200,273516.86617268456
215,0.0
236,1601160.9161253998
251,404037.3496124338
266,0.0
821,6809987.824650186
2,1, 1, 1, 0,19, 0.00,60.00,Monday
464,-4.794369687417991
465,20.000000000000005
300,0.0
303,176282.67348603559
305,0.0
804,0.0
818,6842382.511571231
868,8772285.271245169
1385,8491548.41938184
1387,-132543.5707444089
1416,7979041.391092481
1419,0.0
1422,0.0
1450,180000.0
12,15084535.260220923
24,249271.51164091205
103,2773808.5231531264
140,492343.95208473617
155,0.0
170,565336.2453403532
185,0.0
200,284913.40226321297
215,0.0
236,1903266.749356607
251,480270.8118034591
266,0.0
821,8772285.271245169
2,1, 1, 1, 0,20, 0.00,60.00,Monday
464,-5.5015659886247809
465,20.0
300,0.0
303,185467.88226770893
305,0.0
804,0.0
818,7198904.8554295529
868,9229365.199268658
1385,139737.79477731425
1387,-133679.34389896447
1416,1141211.728088304
1419,0.0
1422,0.0
1450,180000.0
12,8157969.389938207
24,252368.5332648852
103,2808271.1254794669
140,492343.95208473617
155,0.0
170,289916.02325146328
185,0.0
200,273516.86617268456
215,0.0
236,2024109.08264909
251,510764.1966798692
266,0.0
821,9229365.199268658
2,1, 1, 1, 0,21, 0.00,60.00,Monday
464,-5.983125549203149
465,20.0
300,0.0
303,192721.98092540614
305,0.0
804,0.0
818,7480471.482546604
868,9590348.054546928
1385,0.0
1387,-135010.34412119154
1416,0.0
1419,0.0
1422,0.0
1450,180000.0
12,6538846.545541336
24,209519.52997124717
103,2331462.0037226008
140,501997.75506678936
155,0.0
170,169117.68023001997
185,0.0
200,267818.59812742008
215,0.0
236,2144951.415941573
251,541257.5815562792
266,0.0
821,9590348.054546928
2,1, 1, 1, 0,22, 0.00,60.00,Monday
464,-6.1372824154126859
465,19.999999999999998
300,0.0
303,213810.92919998949
305,0.0
804,0.0
818,8299035.485507851
868,10639789.083984424
1385,713829.9119045142
1387,-131443.59025595888
1416,705858.9683284072
1419,0.0
1422,0.0
1450,180000.0
12,6531560.230775987
24,158078.74132085147
103,1759046.419378836
140,521305.36103089709
155,0.0
170,120798.34302144323
185,0.0
200,262120.3300821558
215,0.0
236,2084530.2492953318
251,526010.8891180742
266,0.0
821,10639789.083984424
2,1, 1, 1, 0,23, 0.00,60.00,Monday
464,-6.166495886449361
465,19.999999999999998
300,0.0
303,241529.58204726404
305,0.0
804,0.0
818,9374930.363523355
868,12019141.49169661
1385,191697.52879629387
1387,-135612.19085287336
1416,456740.18131832618
1419,0.0
1422,0.0
1450,180000.0
12,5520333.817048438
24,136634.78396478998
103,1520425.3619911732
140,424767.33121036048
155,0.0
170,77310.93953372377
185,0.0
200,250723.79399162753
215,0.0
236,1782424.4160641244
251,449777.426927049
266,0.0
821,12019141.49169661
2,1, 1, 1, 0,24, 0.00,60.00,Monday
464,-5.0705719955578829
465,20.0
300,0.0
303,293700.41995118735
305,0.0
804,0.0
818,11399932.71814274
868,14615298.356593255
1385,0.0
1387,-133924.420219599
1416,0.0
1419,0.0
1422,0.0
1450,180000.0
12,3653736.959379149
24,63480.3875582901
103,706388.1424039514
140,231691.27156928724
155,0.0
170,53151.2709294349
185,0.0
200,233628.98985583458
215,0.0
236,1510529.1661560375
251,381167.31095512627
266,0.0
821,14615298.356593255
2,2, 1, 2, 0, 1, 0.00,60.00,Tuesday
464,-5.0445169094121919
465,19.999999999999998
300,0.0
303,316095.31996992908
305,0.0
804,0.0
818,12269187.01980707
868,15729726.948470604
1385,0.0
1387,-132930.89328880164
1416,0.0
1419,0.0
1422,0.0
1450,180000.0
12,2750017.371129373
24,31520.721656648944
103,350751.86013675309
140,96538.02982053661
155,0.0
170,33823.53604600406
185,0.0
200,227930.72181057043
215,0.0
236,1208423.3329248299
251,304933.84876410107
266,0.0
821,15729726.948470604
2,2, 1, 2, 0, 2, 0.00,60.00,Tuesday
464,-5.6297164036677949
465,19.999999999999998
300,0.0
303,321873.6993620083
305,0.0
804,0.0
818,12493473.85024658
868,16017274.166982795
1385,0.0
1387,-131944.8232027323
1416,0.0
1419,0.0
1422,0.0
1450,180000.0
12,2445071.449203942
24,18912.432993989292
103,210451.11608205099
140,57922.81789232189
155,0.0
170,33823.53604600406
185,0.0
200,222232.45376530625
215,0.0
236,1117791.5829554678
251,282063.8101067935
266,0.0
821,16017274.166982795
2,2, 1, 2, 0, 3, 0.00,60.00,Tuesday
464,-5.055386923572302
465,20.0
300,0.0
303,326342.67279662398
305,0.0
804,0.0
818,12666936.307270829
868,16239661.932398498
1385,0.0
1387,-130966.15269937509
1416,0.0
1419,0.0
1422,0.0
1450,180000.0
12,2333584.2311079327
24,12608.288662659528
103,140300.74405470069
140,38615.211928214565
155,0.0
170,19327.734883430905
185,0.0
200,216534.18572004169
215,0.0
236,1117791.5829554678
251,282063.8101067935
266,0.0
821,16239661.932398498
2,2, 1, 2, 0, 4, 0.00,60.00,Tuesday
464,-6.69328186367469
465,20.000000000000005
300,0.0
303,350139.66789733179
305,0.0
804,0.0
818,13590612.69522808
868,17423862.42977959
1385,0.0
1387,-129994.82497601748
1416,0.0
1419,0.0
1422,0.0
1450,180000.0
12,2294541.4226570457
24,12608.288662659528
103,140300.74405470069
140,19307.60596410732
155,0.0
170,19327.734883430905
185,0.0
200,210835.9176747775
215,0.0
236,1087580.999632347
251,274440.4638876909
266,0.0
821,17423862.42977959
2,2, 1, 2, 0, 5, 0.00,60.00,Tuesday
464,-5.69700723726807
465,20.0
300,0.0
303,326706.2149119878
305,0.0
804,0.0
818,12681047.133724696
868,16257752.73554448
1385,0.0
1387,-129030.78368526926
1416,0.0
1419,0.0
1422,0.0
1450,180000.0
12,2202802.72205339
24,14017.579698740728
103,155982.85494556168
140,38615.211928214565
155,0.0
170,33823.53604600406
185,0.0
200,205137.64962951334
215,0.0
236,996949.2496629846
251,251570.42523038339
266,0.0
821,16257752.73554448
2,2, 1, 2, 0, 6, 0.00,60.00,Tuesday
464,-6.184929958966679
465,20.0
300,0.0
303,329975.5579656211
305,0.0
804,0.0
818,12807946.137989456
868,16420443.766653149
1385,0.0
1387,-135360.42128441687
1416,1133159.1202972993
1419,0.0
1422,0.0
1450,180000.0
12,3787829.1292854377
24,38462.59422001201
103,427998.6548311974
140,57922.81789232189
155,0.0
170,53151.2709294349
185,0.0
200,205137.64962951334
215,0.0
236,1087580.999632347
251,274440.4638876909
266,0.0
821,16420443.766653149
2,2, 1, 2, 0, 7, 0.00,60.00,Tuesday
464,-4.649718435264443
465,20.0
300,0.0
303,306089.9516167013
305,0.0
804,0.0
818,11880830.319241276
868,15231833.742617019
1385,0.0
1387,-135472.37372932357
1416,0.0
1419,0.0
1422,0.0
1450,180000.0
12,3699864.5459614775
24,90299.55374739846
103,1004822.6938274336
140,154460.8477128584
155,0.0
170,120798.34302144323
185,0.0
200,216534.18572004169
215,0.0
236,1299055.0828941924
251,327803.8874214086
266,0.0
821,15231833.742617019
2,2, 1, 2, 0, 8, 0.00,60.00,Tuesday
464,-3.4345981537538985
465,20.000000000000005
300,0.0
303,270715.10904176448
305,0.0
804,0.0
818,10507761.716424179
868,13471489.380030998
1385,836920.2900597707
1387,-131914.4923726893
1416,1182937.0947215504
1419,0.0
1422,0.0
1450,180000.0
12,5537489.499014956
24,114271.75744381984
103,1271577.215811016
140,308921.6954257168
155,0.0
170,202941.21627602424
185,0.0
200,227930.72181057043
215,0.0
236,1419897.4161866753
251,358297.2722978187
266,0.0
821,13471489.380030998
2,2, 1, 2, 0, 9, 0.00,60.00,Tuesday
464,-2.0817247281936215
465,20.0
300,0.0
303,246167.17432129439
305,0.0
804,0.0
818,9554937.73262045
868,12249920.170026217
1385,0.0
1387,-136071.40694851997
1416,0.0
1419,0.0
1422,0.0
1450,180000.0
12,4104569.4912750429
24,121438.7837423188
103,1351329.444621973
140,463382.54313857536
155,0.0
170,222268.95115945536
185,0.0
200,233628.98985583458
215,0.0
236,1027159.8329861055
251,259193.77144948589
266,0.0
821,12249920.170026217
2,2, 1, 2, 0,10, 0.00,60.00,Tuesday
464,1.7950970907174609
465,20.0
300,0.0
303,164307.96406594772
305,0.0
804,0.0
818,6377586.166605162
868,8176392.521288671
1385,1844855.7507672222
1387,-132692.01455095467
1416,1249778.9780530462
1419,0.0
1422,0.0
1450,180000.0
12,5100190.481106662
24,124830.57748974454
103,1389072.1707901357
140,656458.6027796477
155,0.0
170,231932.81860117054
185,0.0
200,233628.98985583458
215,0.0
236,694843.4164317773
251,175336.9630393581
266,0.0
821,8176392.521288671
2,2, 1, 2, 0,11, 0.00,60.00,Tuesday
464,5.4518441915139779
465,20.0
300,0.0
303,90891.19022430919
305,0.0
804,0.0
818,3527926.3591153377
868,4522982.51168633
1385,1231924.0596626127
1387,-132254.84150042578
1416,1208877.1103281817
1419,0.0
1422,0.0
1450,180000.0
12,5044391.955360983
24,121436.52005279417
103,1351304.25505556
140,752996.6326001843
155,0.0
170,202941.21627602424
185,0.0
200,227930.72181057043
215,0.0
236,725053.9997548979
251,182960.30925846063
266,0.0
821,4522982.51168633
2,2, 1, 2, 0,12, 0.00,60.00,Tuesday
464,9.025662735650377
465,20.0
300,0.0
303,52281.551808736374
305,0.0
804,0.0
818,2029299.6963325556
868,2601666.27734943
1385,0.0
1387,-132056.86292733058
1416,1133116.5067076763
1419,0.0
1422,0.0
1450,180000.0
12,4978443.723830448
24,116734.14550150292
103,1298977.8318571493
140,781958.0415463452
155,0.0
170,241596.68604288577
185,0.0
200,227930.72181057043
215,0.0
236,755264.5830780187
251,190583.65547756313
266,0.0
821,2601666.27734943
2,2, 1, 2, 0,13, 0.00,60.00,Tuesday
464,9.788519046859382
465,20.0
300,0.0
303,33241.718431022564
305,0.0
804,0.0
818,1290271.7456518596
868,1654194.5457075122
1385,470169.34761451036
1387,-134157.17354326367
1416,0.0
1419,0.0
1422,0.0
1450,180000.0
12,3724934.9322934627
24,113340.08806455229
103,1261209.916122571
140,714381.4206719695
155,0.0
170,275420.22208889006
185,0.0
200,239327.25790109879
215,0.0
236,725053.9997548979
251,182960.30925846063
266,0.0
821,1654194.5457075122
2,2, 1, 2, 0,14, 0.00,60.00,Tuesday
464,9.950864170185398
465,20.0
300,0.0
303,28536.620743498086
305,0.0
804,0.0
818,1107644.165211278
868,1420056.6220657409
1385,0.0
1387,-131417.56347393606
1416,0.0
1419,0.0
1422,0.0
1450,180000.0
12,3738725.146654547
24,112341.33688407114
103,1250096.1529865785
140,646804.7997975946
155,0.0
170,222268.95115945536
185,0.0
200,239327.25790109879
215,0.0
236,845896.3330473809
251,213453.69413487073
266,0.0
821,1420056.6220657409
2,2, 1, 2, 0,15, 0.00,60.00,Tuesday
464,10.443010952032836
465,20.0
300,0.0
303,2940.4779142385525
305,0.0
804,0.0
818,114134.1588380275
868,146325.84466413785
1385,0.0
1387,-130442.84905861231
1416,0.0
1419,0.0
1422,0.0
1450,0.0
12,3624473.4707125055
24,114091.83433341766
103,1269575.0926888814
140,550266.7699770579
155,0.0
170,275420.22208889006
185,0.0
200,239327.25790109879
215,0.0
236,936528.0830167432
251,236323.73279217829
266,0.0
821,146325.84466413785
2,2, 1, 2, 0,16, 0.00,60.00,Tuesday
464,8.396438573644123
465,20.0
300,0.0
303,15069.324091820528
305,0.0
804,0.0
818,584913.2962873961
868,749888.8413940976
1385,754691.9203340332
1387,-133127.04937185985
1416,1178053.132200681
1419,0.0
1422,0.0
1450,180000.0