Program Version,EnergyPlus, Version 9.2.0-921312fa1d, YMD=2019.11.06 07:58
1,5,Environment Title[],Latitude[deg],Longitude[deg],Time Zone[],Elevation[m]
2,8,Day of Simulation[],Month[],Day of Month[],DST Indicator[1=yes 0=no],Hour[],StartMinute[],EndMinute[],DayType
3,5,Cumulative Day of Simulation[],Month[],Day of Month[],DST Indicator[1=yes 0=no],DayType  ! When Daily Meters Requested
4,2,Cumulative Days of Simulation[],Month[]  ! When Monthly Meters Requested
5,1,Cumulative Days of Simulation[] ! When Run Period Meters Requested
6,1,Calendar Year of Simulation[] ! When Annual Meters Requested
350,11,Cooling:EnergyTransfer [J] !RunPeriod [Value,Min,Month,Day,Hour,Minute,Max,Month,Day,Hour,Minute]
325,11,Heating:EnergyTransfer [J] !RunPeriod [Value,Min,Month,Day,Hour,Minute,Max,Month,Day,Hour,Minute]
474,11,Cooling:DistrictCooling [J] !RunPeriod [Value,Min,Month,Day,Hour,Minute,Max,Month,Day,Hour,Minute]
16,11,Electricity:Facility [J] !RunPeriod [Value,Min,Month,Day,Hour,Minute,Max,Month,Day,Hour,Minute]
578,11,Gas:Facility [J] !RunPeriod [Value,Min,Month,Day,Hour,Minute,Max,Month,Day,Hour,Minute]
102,11,interior lighting:InteriorLights:Electricity [J] !RunPeriod [Value,Min,Month,Day,Hour,Minute,Max,Month,Day,Hour,Minute]
437,11,Heating:DistrictHeating [J] !RunPeriod [Value,Min,Month,Day,Hour,Minute,Max,Month,Day,Hour,Minute]
28,11,ExteriorLights:Electricity [J] !RunPeriod [Value,Min,Month,Day,Hour,Minute,Max,Month,Day,Hour,Minute]
115,11,InteriorEquipment:Electricity [J] !RunPeriod [Value,Min,Month,Day,Hour,Minute,Max,Month,Day,Hour,Minute]
191,11,fridge:InteriorEquipment:Electricity [J] !RunPeriod [Value,Min,Month,Day,Hour,Minute,Max,Month,Day,Hour,Minute]
178,11,dishwasher:InteriorEquipment:Electricity [J] !RunPeriod [Value,Min,Month,Day,Hour,Minute,Max,Month,Day,Hour,Minute]
152,11,clothes washer:InteriorEquipment:Electricity [J] !RunPeriod [Value,Min,Month,Day,Hour,Minute,Max,Month,Day,Hour,Minute]
139,11,clothes dryer:InteriorEquipment:Electricity [J] !RunPeriod [Value,Min,Month,Day,Hour,Minute,Max,Month,Day,Hour,Minute]
243,11,misc plug loads:InteriorEquipment:Electricity [J] !RunPeriod [Value,Min,Month,Day,Hour,Minute,Max,Month,Day,Hour,Minute]
256,11,misc tv:InteriorEquipment:Electricity [J] !RunPeriod [Value,Min,Month,Day,Hour,Minute,Max,Month,Day,Hour,Minute]
165,11,cooking range:InteriorEquipment:Electricity [J] !RunPeriod [Value,Min,Month,Day,Hour,Minute,Max,Month,Day,Hour,Minute]
217,11,mech vent house fan:InteriorEquipment:Electricity [J] !RunPeriod [Value,Min,Month,Day,Hour,Minute,Max,Month,Day,Hour,Minute]
12,1,Electricity:Facility [J] !Hourly
574,1,Gas:Facility [J] !Hourly
End of Data Dictionary
1,RUN PERIOD 1,  39.83,-104.65,  -7.00,1650.00
2,1, 1, 1, 0, 1, 0.00,60.00,Monday
12,2732909.814488995
574,11058299.162996073
2,1, 1, 1, 0, 2, 0.00,60.00,Monday
12,2491670.201701818
574,13628245.385741979
2,1, 1, 1, 0, 3, 0.00,60.00,Monday
12,2414084.275924982
574,15047400.045932465
2,1, 1, 1, 0, 4, 0.00,60.00,Monday
12,2380774.299266802
574,16139584.075079294
2,1, 1, 1, 0, 5, 0.00,60.00,Monday
12,2326108.7689936019
574,16644059.820913388
2,1, 1, 1, 0, 6, 0.00,60.00,Monday
12,2763983.5941071438
574,16247456.78281025
2,1, 1, 1, 0, 7, 0.00,60.00,Monday
12,3817626.8731042298
574,15676512.132951186
2,1, 1, 1, 0, 8, 0.00,60.00,Monday
12,5642994.470423635
574,14757051.895249824
2,1, 1, 1, 0, 9, 0.00,60.00,Monday
12,10615388.294252359
574,13099313.089178628
2,1, 1, 1, 0,10, 0.00,60.00,Monday
12,3919074.3191282029
574,8616608.768001643
2,1, 1, 1, 0,11, 0.00,60.00,Monday
12,3897149.3920515689
574,5641285.160661856
2,1, 1, 1, 0,12, 0.00,60.00,Monday
12,5050603.044577715
574,4014715.196932654
2,1, 1, 1, 0,13, 0.00,60.00,Monday
12,5024155.277845299
574,3770441.200274125
2,1, 1, 1, 0,14, 0.00,60.00,Monday
12,3811870.101757099
574,3760773.593369873
2,1, 1, 1, 0,15, 0.00,60.00,Monday
12,5070904.39695748
574,2952778.377047167
2,1, 1, 1, 0,16, 0.00,60.00,Monday
12,5530989.544302846
574,2890710.4716976454
2,1, 1, 1, 0,17, 0.00,60.00,Monday
12,4863053.173772655
574,4548704.1977692
2,1, 1, 1, 0,18, 0.00,60.00,Monday
12,7605992.742693133
574,6417172.511539567
2,1, 1, 1, 0,19, 0.00,60.00,Monday
12,16785912.039815666
574,8335313.261338091
2,1, 1, 1, 0,20, 0.00,60.00,Monday
12,7068799.815134005
574,8784496.723535808
2,1, 1, 1, 0,21, 0.00,60.00,Monday
12,6593175.735690409
574,9137383.1754408
2,1, 1, 1, 0,22, 0.00,60.00,Monday
12,7074559.60319784
574,10187691.792910358
2,1, 1, 1, 0,23, 0.00,60.00,Monday
12,5134525.120667697
574,11556619.966747327
2,1, 1, 1, 0,24, 0.00,60.00,Monday
12,3742586.26720223
574,14148904.581716214
2,2, 1, 2, 0, 1, 0.00,60.00,Tuesday
12,2846433.3017300355
574,15257055.225645666
2,2, 1, 2, 0, 2, 0.00,60.00,Tuesday
12,2543275.0582044899
574,15536891.863828885
2,2, 1, 2, 0, 3, 0.00,60.00,Tuesday
12,2433618.8847807415
574,15769903.021818458
2,2, 1, 2, 0, 4, 0.00,60.00,Tuesday
12,3536005.86490574
574,16895229.272995108
2,2, 1, 2, 0, 5, 0.00,60.00,Tuesday
12,2302441.1355044546
574,15768693.656463864
2,2, 1, 2, 0, 6, 0.00,60.00,Tuesday
12,2754681.3394180939
574,15903405.527680744
2,2, 1, 2, 0, 7, 0.00,60.00,Tuesday
12,3793147.7001446245
574,14771130.538615937
2,2, 1, 2, 0, 8, 0.00,60.00,Tuesday
12,5633527.182426524
574,13052885.87698937
2,2, 1, 2, 0, 9, 0.00,60.00,Tuesday
12,4178691.815004594
574,11846160.688215804
2,2, 1, 2, 0,10, 0.00,60.00,Tuesday
12,5180563.476181767
574,7863877.765816179
2,2, 1, 2, 0,11, 0.00,60.00,Tuesday
12,5649841.464501966
574,4275802.969425384
2,2, 1, 2, 0,12, 0.00,60.00,Tuesday
12,4475134.162257779
574,2414727.067444514
2,2, 1, 2, 0,13, 0.00,60.00,Tuesday
12,3731884.898272018
574,1486521.2713603685
2,2, 1, 2, 0,14, 0.00,60.00,Tuesday
12,3744280.1440957856
574,1260905.4920482487
2,2, 1, 2, 0,15, 0.00,60.00,Tuesday
12,3621532.992798267
574,0.0
2,2, 1, 2, 0,16, 0.00,60.00,Tuesday
12,5144926.2617727559
574,571028.9846523067
2,2, 1, 2, 0,17, 0.00,60.00,Tuesday
12,4780097.929906201
574,1480538.820032871
2,2, 1, 2, 0,18, 0.00,60.00,Tuesday
12,7408879.920108546
574,2404148.3095990696
2,2, 1, 2, 0,19, 0.00,60.00,Tuesday
12,7028534.555083614
574,3673553.092418813
2,2, 1, 2, 0,20, 0.00,60.00,Tuesday
12,6956661.028205302
574,4636954.898333292
2,2, 1, 2, 0,21, 0.00,60.00,Tuesday
12,6513375.76385978
574,6185918.032270029
2,2, 1, 2, 0,22, 0.00,60.00,Tuesday
12,5787062.929013092
574,6478897.154725287
2,2, 1, 2, 0,23, 0.00,60.00,Tuesday
12,5000690.245643433
574,6606631.144531811
2,2, 1, 2, 0,24, 0.00,60.00,Tuesday
12,9343977.880948546
574,8510716.517659586
2,3, 1, 3, 0, 1, 0.00,60.00,Wednesday
12,3319563.189772388
574,9798901.732784922
2,3, 1, 3, 0, 2, 0.00,60.00,Wednesday
12,2419320.827916378
574,10952346.510599809
2,3, 1, 3, 0, 3, 0.00,60.00,Wednesday
12,2326406.6001551884
574,11804571.785065234
2,3, 1, 3, 0, 4, 0.00,60.00,Wednesday
12,2290258.9999023985
574,12791804.058756479
2,3, 1, 3, 0, 5, 0.00,60.00,Wednesday
12,2239822.243550501
574,13452684.356381223
2,3, 1, 3, 0, 6, 0.00,60.00,Wednesday
12,3828178.6136402089
574,13636599.786912058
2,3, 1, 3, 0, 7, 0.00,60.00,Wednesday
12,3739627.19006872
574,12791632.09632298
2,3, 1, 3, 0, 8, 0.00,60.00,Wednesday
12,4421752.577895006
574,12498064.287333234
2,3, 1, 3, 0, 9, 0.00,60.00,Wednesday
12,4111004.258633784
574,9342682.821345523
2,3, 1, 3, 0,10, 0.00,60.00,Wednesday
12,16578135.976598923
574,7832829.319325899
2,3, 1, 3, 0,11, 0.00,60.00,Wednesday
12,14319381.628218675
574,5007700.2244205
2,3, 1, 3, 0,12, 0.00,60.00,Wednesday
12,4211485.089846557
574,3318565.392255484
2,3, 1, 3, 0,13, 0.00,60.00,Wednesday
12,3780261.273342368
574,3275759.807385646
2,3, 1, 3, 0,14, 0.00,60.00,Wednesday
12,3819387.749237439
574,4038819.737846749
2,3, 1, 3, 0,15, 0.00,60.00,Wednesday
12,5021806.51040167
574,3115527.5259976058
2,3, 1, 3, 0,16, 0.00,60.00,Wednesday
12,4073882.597470935
574,4988739.20667499
2,3, 1, 3, 0,17, 0.00,60.00,Wednesday
12,4924557.314367433
574,6823483.5361810219
2,3, 1, 3, 0,18, 0.00,60.00,Wednesday
12,6385015.94376585
574,7979422.339695206
2,3, 1, 3, 0,19, 0.00,60.00,Wednesday
12,8368634.850484243
574,8063823.016798546
2,3, 1, 3, 0,20, 0.00,60.00,Wednesday
12,17471349.02739815
574,8717440.415765368
2,3, 1, 3, 0,21, 0.00,60.00,Wednesday
12,7026858.14913762
574,11066375.238687043
2,3, 1, 3, 0,22, 0.00,60.00,Wednesday
12,5960203.47571181
574,12882637.365754446
2,3, 1, 3, 0,23, 0.00,60.00,Wednesday
12,5227893.578845604
574,15009926.32089718
2,3, 1, 3, 0,24, 0.00,60.00,Wednesday
12,4995578.074705426
574,16996254.537573909
2,4, 1, 4, 0, 1, 0.00,60.00,Thursday
12,2937062.885264105
574,18609062.132472926
2,4, 1, 4, 0, 2, 0.00,60.00,Thursday
12,3804099.5390084807
574,18609062.132472926
2,4, 1, 4, 0, 3, 0.00,60.00,Thursday
12,2510382.39241597
574,18609062.132472926
2,4, 1, 4, 0, 4, 0.00,60.00,Thursday
12,2447542.588864376
574,18609062.132472926
2,4, 1, 4, 0, 5, 0.00,60.00,Thursday
12,2379237.341246064
574,18609062.132472926
2,4, 1, 4, 0, 6, 0.00,60.00,Thursday
12,3962648.575189395
574,18609062.132472926
2,4, 1, 4, 0, 7, 0.00,60.00,Thursday
12,3896915.428449438
574,18609062.132472926
2,4, 1, 4, 0, 8, 0.00,60.00,Thursday
12,5510204.054633628
574,18537241.976249689
2,4, 1, 4, 0, 9, 0.00,60.00,Thursday
12,15697792.351134154
574,16868196.15997526
2,4, 1, 4, 0,10, 0.00,60.00,Thursday
12,5641503.757404523
574,13312901.73624233
2,4, 1, 4, 0,11, 0.00,60.00,Thursday
12,5187633.011384362
574,11305691.251719723
2,4, 1, 4, 0,12, 0.00,60.00,Thursday
12,9148642.631512605
574,10521372.686203922
2,4, 1, 4, 0,13, 0.00,60.00,Thursday
12,3923048.771068439
574,8556868.468846536
2,4, 1, 4, 0,14, 0.00,60.00,Thursday
12,3912198.4068201256
574,7471495.395320027
2,4, 1, 4, 0,15, 0.00,60.00,Thursday
12,4983984.091462667
574,6244965.298651699
2,4, 1, 4, 0,16, 0.00,60.00,Thursday
12,4791515.742499766
574,6810585.482578977
2,4, 1, 4, 0,17, 0.00,60.00,Thursday
12,5224878.396393133
574,6224930.158107583
2,4, 1, 4, 0,18, 0.00,60.00,Thursday
12,6323505.363959625
574,5704404.8419495089
2,4, 1, 4, 0,19, 0.00,60.00,Thursday
12,7076229.743607712
574,5437597.404672591
2,4, 1, 4, 0,20, 0.00,60.00,Thursday
12,9654500.883035722
574,4936180.15013494
2,4, 1, 4, 0,21, 0.00,60.00,Thursday
12,7627507.192065967
574,5421315.069221917
2,4, 1, 4, 0,22, 0.00,60.00,Thursday
12,5767619.951078874
574,5759783.221025143
2,4, 1, 4, 0,23, 0.00,60.00,Thursday
12,6230796.657251377
574,6529369.655723638
2,4, 1, 4, 0,24, 0.00,60.00,Thursday
12,3342929.3005611819
574,6024717.747770005
2,5, 1, 5, 0, 1, 0.00,60.00,Friday
12,2649957.890368419
574,7990256.568689609
2,5, 1, 5, 0, 2, 0.00,60.00,Friday
12,2123182.890382255
574,6656892.933758568
2,5, 1, 5, 0, 3, 0.00,60.00,Friday
12,2320014.4920388867
574,6597872.017296741
2,5, 1, 5, 0, 4, 0.00,60.00,Friday
12,2953398.1170604897
574,6979380.448225197
2,5, 1, 5, 0, 5, 0.00,60.00,Friday
12,2062025.1985293928
574,6876719.867918265
2,5, 1, 5, 0, 6, 0.00,60.00,Friday
12,6398715.779404702
574,6631213.5666562099
2,5, 1, 5, 0, 7, 0.00,60.00,Friday
12,13951808.025907506
574,8428724.862108535
2,5, 1, 5, 0, 8, 0.00,60.00,Friday
12,4182328.2755370356
574,4776010.302074283
2,5, 1, 5, 0, 9, 0.00,60.00,Friday
12,3928401.809305755
574,2588986.649708275
2,5, 1, 5, 0,10, 0.00,60.00,Friday
12,3506103.5389876689
574,0.0
2,5, 1, 5, 0,11, 0.00,60.00,Friday
12,20389031.334340827
574,0.0
2,5, 1, 5, 0,12, 0.00,60.00,Friday
12,15360742.780939397
574,0.0
2,5, 1, 5, 0,13, 0.00,60.00,Friday
12,4815006.58544703
574,0.0
2,5, 1, 5, 0,14, 0.00,60.00,Friday
12,4713777.695641583
574,0.0
2,5, 1, 5, 0,15, 0.00,60.00,Friday
12,3621532.992798267
574,0.0
2,5, 1, 5, 0,16, 0.00,60.00,Friday
12,3939000.012432055
574,0.0
2,5, 1, 5, 0,17, 0.00,60.00,Friday
12,4740067.995483241
574,0.0
2,5, 1, 5, 0,18, 0.00,60.00,Friday
12,8732512.855209498
574,0.0
2,5, 1, 5, 0,19, 0.00,60.00,Friday
12,6929211.195642407
574,0.0
2,5, 1, 5, 0,20, 0.00,60.00,Friday
12,9759597.892262046
574,0.0
2,5, 1, 5, 0,21, 0.00,60.00,Friday
12,7745522.368784205
574,1320106.8417912177
2,5, 1, 5, 0,22, 0.00,60.00,Friday
12,8869758.454878813
574,2966364.543824949
2,5, 1, 5, 0,23, 0.00,60.00,Friday
12,4925521.198775116
574,3826444.4278235619
2,5, 1, 5, 0,24, 0.00,60.00,Friday
12,3511652.4944635999
574,5607636.145361054
2,6, 1, 6, 0, 1, 0.00,60.00,Saturday
12,2623211.5964361897
574,7001023.7100926
2,6, 1, 6, 0, 2, 0.00,60.00,Saturday
12,5041608.708766881
574,7797739.2762223989
2,6, 1, 6, 0, 3, 0.00,60.00,Saturday
12,3374569.2544764627
574,8600846.092505638
2,6, 1, 6, 0, 4, 0.00,60.00,Saturday
12,2208771.722716467
574,9777932.591024245
2,6, 1, 6, 0, 5, 0.00,60.00,Saturday
12,2161048.5770165307
574,10539177.92722817
2,6, 1, 6, 0, 6, 0.00,60.00,Saturday
12,18102288.238936098
574,11840524.08883798
2,6, 1, 6, 0, 7, 0.00,60.00,Saturday
12,6220804.1062888079
574,11314914.811686123
2,6, 1, 6, 0, 8, 0.00,60.00,Saturday
12,4386941.470343974
574,11210547.911386325
2,6, 1, 6, 0, 9, 0.00,60.00,Saturday
12,4093622.865330575
574,8699818.227570415
2,6, 1, 6, 0,10, 0.00,60.00,Saturday
12,6506843.175796089
574,6978399.880554146
2,6, 1, 6, 0,11, 0.00,60.00,Saturday
12,3879623.9337608355
574,4993092.209253589
2,6, 1, 6, 0,12, 0.00,60.00,Saturday
12,6061918.98713398
574,3212588.9499215164
2,6, 1, 6, 0,13, 0.00,60.00,Saturday
12,11367863.414803479
574,2982279.068592829
2,6, 1, 6, 0,14, 0.00,60.00,Saturday
12,6366874.105142069
574,2858071.674175917
2,6, 1, 6, 0,15, 0.00,60.00,Saturday
12,3856180.984497282
574,2021199.2428551228
2,6, 1, 6, 0,16, 0.00,60.00,Saturday
12,5189380.8397389189
574,1981486.0688071817
2,6, 1, 6, 0,17, 0.00,60.00,Saturday
12,4872046.863299401
574,4881342.926051299
2,6, 1, 6, 0,18, 0.00,60.00,Saturday
12,8915747.483417
574,5569001.122420167
2,6, 1, 6, 0,19, 0.00,60.00,Saturday
12,12120206.749306195
574,6613445.257014214
2,6, 1, 6, 0,20, 0.00,60.00,Saturday
12,8274949.246365302
574,7799053.205849906
2,6, 1, 6, 0,21, 0.00,60.00,Saturday
12,10699782.441138886
574,8552776.426480452
2,6, 1, 6, 0,22, 0.00,60.00,Saturday
12,25021417.571675317
574,10932299.85437582
2,6, 1, 6, 0,23, 0.00,60.00,Saturday
12,7653966.783730985
574,12113975.527333303
2,6, 1, 6, 0,24, 0.00,60.00,Saturday
12,4886593.731366644
574,14274821.350271713
2,7, 1, 7, 0, 1, 0.00,60.00,Sunday
12,2862344.3116843577
574,15845536.527023768
2,7, 1, 7, 0, 2, 0.00,60.00,Sunday
12,2559007.9584393876
574,16118785.636208142
2,7, 1, 7, 0, 3, 0.00,60.00,Sunday
12,2503104.4325800139
574,18339881.025306457
2,7, 1, 7, 0, 4, 0.00,60.00,Sunday
12,5299331.41667914
574,18609062.132472926
2,7, 1, 7, 0, 5, 0.00,60.00,Sunday
12,15519117.174285017
574,18609062.132472926
2,7, 1, 7, 0, 6, 0.00,60.00,Sunday
12,3060416.8688290088
574,18609062.132472926
2,7, 1, 7, 0, 7, 0.00,60.00,Sunday
12,9133916.900579198
574,18609062.132472926
2,7, 1, 7, 0, 8, 0.00,60.00,Sunday
12,5686064.5469098859
574,15836216.80572887
2,7, 1, 7, 0, 9, 0.00,60.00,Sunday
12,4260917.514685384
574,14887343.296597744
2,7, 1, 7, 0,10, 0.00,60.00,Sunday
12,8260376.689440285
574,13749036.620457858
2,7, 1, 7, 0,11, 0.00,60.00,Sunday
12,4323331.283235988
574,12195222.717356146
2,7, 1, 7, 0,12, 0.00,60.00,Sunday
12,4082690.426026712
574,10712740.813492064
2,7, 1, 7, 0,13, 0.00,60.00,Sunday
12,5367285.841628086
574,9909040.105631484
2,7, 1, 7, 0,14, 0.00,60.00,Sunday
12,3983747.2576905887
574,9629386.33624884
2,7, 1, 7, 0,15, 0.00,60.00,Sunday
12,4054655.54226467
574,9361937.912537646
2,7, 1, 7, 0,16, 0.00,60.00,Sunday
12,4190636.823464151
574,9306986.700148333
2,7, 1, 7, 0,17, 0.00,60.00,Sunday
12,11457252.81008377
574,9138079.42915119
2,7, 1, 7, 0,18, 0.00,60.00,Sunday
12,9577193.206425319
574,7891358.088035477
2,7, 1, 7, 0,19, 0.00,60.00,Sunday
12,7118111.242892089
574,6986617.8171600629
2,7, 1, 7, 0,20, 0.00,60.00,Sunday
12,7024106.161007445
574,7131466.537567279
2,7, 1, 7, 0,21, 0.00,60.00,Sunday
12,6569170.961257374
574,8249547.586235932
2,7, 1, 7, 0,22, 0.00,60.00,Sunday
12,7093073.909546472
574,9540403.05145488
2,7, 1, 7, 0,23, 0.00,60.00,Sunday
12,6231184.480510297
574,10026313.750958819
2,7, 1, 7, 0,24, 0.00,60.00,Sunday
12,3625960.673446705
574,9835414.65340391
2,8, 1, 8, 0, 1, 0.00,60.00,Monday
12,2718875.0031462979
574,10539210.552828812
2,8, 1, 8, 0, 2, 0.00,60.00,Monday
12,3563960.550843712
574,11313882.776518476
2,8, 1, 8, 0, 3, 0.00,60.00,Monday
12,2346227.229716893
574,12537653.463229662
2,8, 1, 8, 0, 4, 0.00,60.00,Monday
12,2359657.6131297869
574,15358566.718269192
2,8, 1, 8, 0, 5, 0.00,60.00,Monday
12,2301955.4312180199
574,15750729.498853079
2,8, 1, 8, 0, 6, 0.00,60.00,Monday
12,2721106.368641318
574,14661608.649093448
2,8, 1, 8, 0, 7, 0.00,60.00,Monday
12,3803167.7006732507
574,15141728.1919279
2,8, 1, 8, 0, 8, 0.00,60.00,Monday
12,5593442.244819603
574,12916208.243970713
2,8, 1, 8, 0, 9, 0.00,60.00,Monday
12,10507109.217191998
574,8494243.559534159
2,8, 1, 8, 0,10, 0.00,60.00,Monday
12,3823859.4247690725
574,5095010.509695041
2,8, 1, 8, 0,11, 0.00,60.00,Monday
12,3844968.1831813517
574,3711321.8339098377
2,8, 1, 8, 0,12, 0.00,60.00,Monday
12,5004008.565602027
574,2287798.0922066338
2,8, 1, 8, 0,13, 0.00,60.00,Monday
12,4748649.684483209
574,202259.20380038909
2,8, 1, 8, 0,14, 0.00,60.00,Monday
12,3530188.525911049
574,0.0
2,8, 1, 8, 0,15, 0.00,60.00,Monday
12,4991500.925108062
574,0.0
2,8, 1, 8, 0,16, 0.00,60.00,Monday
12,5453564.29429769
574,0.0
2,8, 1, 8, 0,17, 0.00,60.00,Monday
12,4740067.995483241
574,0.0
2,8, 1, 8, 0,18, 0.00,60.00,Monday
12,7478963.649983078
574,1680918.3253591222
2,8, 1, 8, 0,19, 0.00,60.00,Monday
12,16772352.412773177
574,3871207.368145597
2,8, 1, 8, 0,20, 0.00,60.00,Monday
12,6966097.690828678
574,4985977.337337044
2,8, 1, 8, 0,21, 0.00,60.00,Monday
12,6486886.726742423
574,5206200.020665117
2,8, 1, 8, 0,22, 0.00,60.00,Monday
12,6983687.496795144
574,6809448.350393973
2,8, 1, 8, 0,23, 0.00,60.00,Monday
12,5019538.520167927
574,7303749.501741616
2,8, 1, 8, 0,24, 0.00,60.00,Monday
12,3624606.9025509099
574,9785344.36491734
2,9, 1, 9, 0, 1, 0.00,60.00,Tuesday
12,2748931.7873650055
574,11650884.515892424
2,9, 1, 9, 0, 2, 0.00,60.00,Tuesday
12,2460634.7510454126
574,12480374.669579406
2,9, 1, 9, 0, 3, 0.00,60.00,Tuesday
12,2366179.601196837
574,13275607.720552428
2,9, 1, 9, 0, 4, 0.00,60.00,Tuesday
12,2320844.677834074
574,13923039.574568268
2,9, 1, 9, 0, 5, 0.00,60.00,Tuesday
12,3398615.782834427
574,14339113.41786244
2,9, 1, 9, 0, 6, 0.00,60.00,Tuesday
12,2719155.422457755
574,14589451.359749927
2,9, 1, 9, 0, 7, 0.00,60.00,Tuesday
12,3783360.8173192085
574,14409154.928138026
2,9, 1, 9, 0, 8, 0.00,60.00,Tuesday
12,5606398.5320297409
574,12025826.682914349
2,9, 1, 9, 0, 9, 0.00,60.00,Tuesday
12,4085949.9664155917
574,8416029.985856355
2,9, 1, 9, 0,10, 0.00,60.00,Tuesday
12,5134243.069222057
574,6090270.345571963
2,9, 1, 9, 0,11, 0.00,60.00,Tuesday
12,5090872.398825572
574,4285860.297382492
2,9, 1, 9, 0,12, 0.00,60.00,Tuesday
12,5013260.11601466
574,3156834.676501424
2,9, 1, 9, 0,13, 0.00,60.00,Tuesday
12,3759878.3662560179
574,2521881.849765104
2,9, 1, 9, 0,14, 0.00,60.00,Tuesday
12,3754415.114372566
574,1635755.3925278767
2,9, 1, 9, 0,15, 0.00,60.00,Tuesday
12,3804931.284375204
574,125688.50471460732
2,9, 1, 9, 0,16, 0.00,60.00,Tuesday
12,5130136.171723383
574,0.0
2,9, 1, 9, 0,17, 0.00,60.00,Tuesday
12,4789744.072866326
574,1837309.0551562452
2,9, 1, 9, 0,18, 0.00,60.00,Tuesday
12,7445477.7698988909
574,3740568.0353367074
2,9, 1, 9, 0,19, 0.00,60.00,Tuesday
12,7051426.610544692
574,4520233.889403364
2,9, 1, 9, 0,20, 0.00,60.00,Tuesday
12,6961072.743992098
574,4800125.699871177
2,9, 1, 9, 0,21, 0.00,60.00,Tuesday
12,6525273.230977023
574,6625955.273925893
2,9, 1, 9, 0,22, 0.00,60.00,Tuesday
12,5823442.730358442
574,7824432.912734981
2,9, 1, 9, 0,23, 0.00,60.00,Tuesday
12,5074329.073149483
574,9330221.486510426
2,9, 1, 9, 0,24, 0.00,60.00,Tuesday
12,9562663.213860987
574,11957067.52653462
2,10, 1,10, 0, 1, 0.00,60.00,Wednesday
12,3341183.4543918196
574,12989964.76876591
2,10, 1,10, 0, 2, 0.00,60.00,Wednesday
12,2502887.4179278009
574,14043123.009567038
2,10, 1,10, 0, 3, 0.00,60.00,Wednesday
12,2398153.177638695
574,14458175.761690868
2,10, 1,10, 0, 4, 0.00,60.00,Wednesday
12,2373632.2819364035
574,15875430.909119126
2,10, 1,10, 0, 5, 0.00,60.00,Wednesday
12,2322495.6725307849
574,16510426.587413619
2,10, 1,10, 0, 6, 0.00,60.00,Wednesday
12,3916409.617619763
574,16899758.998228216
2,10, 1,10, 0, 7, 0.00,60.00,Wednesday
12,3823352.28222742
574,15888270.922708057
2,10, 1,10, 0, 8, 0.00,60.00,Wednesday
12,4477412.502272002
574,14556690.66152416
2,10, 1,10, 0, 9, 0.00,60.00,Wednesday
12,4132449.4564082606
574,10135850.441180163
2,10, 1,10, 0,10, 0.00,60.00,Wednesday
12,17360312.96004936
574,7550305.911319179
2,10, 1,10, 0,11, 0.00,60.00,Wednesday
12,13381844.039750115
574,4931543.130322942
2,10, 1,10, 0,12, 0.00,60.00,Wednesday
12,4647416.461915743
574,2089106.2345508193
2,10, 1,10, 0,13, 0.00,60.00,Wednesday
12,3695257.537360594
574,131829.32678364585
2,10, 1,10, 0,14, 0.00,60.00,Wednesday
12,3710188.525911049
574,0.0
2,10, 1,10, 0,15, 0.00,60.00,Wednesday
12,4937554.867334293
574,0.0
2,10, 1,10, 0,16, 0.00,60.00,Wednesday
12,3939000.012432055
574,0.0
2,10, 1,10, 0,17, 0.00,60.00,Wednesday
12,4740067.995483241
574,0.0
2,10, 1,10, 0,18, 0.00,60.00,Wednesday
12,6217225.32704371
574,1773553.5248839602
2,10, 1,10, 0,19, 0.00,60.00,Wednesday
12,8246585.868989628
574,3505629.8267128558
2,10, 1,10, 0,20, 0.00,60.00,Wednesday
12,17432512.830026553
574,3961266.4731836046
2,10, 1,10, 0,21, 0.00,60.00,Wednesday
12,6834496.740173336
574,5068931.249576152
2,10, 1,10, 0,22, 0.00,60.00,Wednesday
12,5808156.985123458
574,7259077.522081476
2,10, 1,10, 0,23, 0.00,60.00,Wednesday
12,5060375.701376213
574,8814144.98330166
2,10, 1,10, 0,24, 0.00,60.00,Wednesday
12,4864053.086887948
574,12111261.416983808
2,11, 1,11, 0, 1, 0.00,60.00,Thursday
12,2785821.867909031
574,13015293.354100332
2,11, 1,11, 0, 2, 0.00,60.00,Thursday
12,3691389.4537700547
574,14419788.853998239
2,11, 1,11, 0, 3, 0.00,60.00,Thursday
12,2403357.6849666095
574,14650668.58610336
2,11, 1,11, 0, 4, 0.00,60.00,Thursday
12,2368362.315826634
574,15680517.039829933
2,11, 1,11, 0, 5, 0.00,60.00,Thursday
12,2315373.8836081319
574,16247021.585130617
2,11, 1,11, 0, 6, 0.00,60.00,Thursday
12,3883595.5653221525
574,15684492.045795301
2,11, 1,11, 0, 7, 0.00,60.00,Thursday
12,3806788.1619028465
574,15275633.817158359
2,11, 1,11, 0, 8, 0.00,60.00,Thursday
12,5674236.806909023
574,14436971.528578228
2,11, 1,11, 0, 9, 0.00,60.00,Thursday
12,15683433.278993862
574,13002475.135945168
2,11, 1,11, 0,10, 0.00,60.00,Thursday
12,5321536.749409433
574,8031660.836521723
2,11, 1,11, 0,11, 0.00,60.00,Thursday
12,4969173.099167606
574,4444682.391416934
2,11, 1,11, 0,12, 0.00,60.00,Thursday
12,8961296.002442912
574,2415032.005661754
2,11, 1,11, 0,13, 0.00,60.00,Thursday
12,3531812.5858151719
574,744130.9020385252
2,11, 1,11, 0,14, 0.00,60.00,Thursday
12,3530188.525911049
574,0.0
2,11, 1,11, 0,15, 0.00,60.00,Thursday
12,4815918.845695572
574,0.0
2,11, 1,11, 0,16, 0.00,60.00,Thursday
12,4956314.12900744
574,731005.052973172
2,11, 1,11, 0,17, 0.00,60.00,Thursday
12,4782871.526743268
574,1583122.4951648073
2,11, 1,11, 0,18, 0.00,60.00,Thursday
12,6214015.012876442
574,1654817.5135050116
2,11, 1,11, 0,19, 0.00,60.00,Thursday
12,8111120.063267492
574,1565684.5740174584
2,11, 1,11, 0,20, 0.00,60.00,Thursday
12,9598843.382551283
574,2700854.4885836804
2,11, 1,11, 0,21, 0.00,60.00,Thursday
12,6440165.419298701
574,3478175.4712807147
2,11, 1,11, 0,22, 0.00,60.00,Thursday
12,5706459.43025992
574,3497712.9320977239
2,11, 1,11, 0,23, 0.00,60.00,Thursday
12,6186605.930377554
574,4839094.428288922
2,11, 1,11, 0,24, 0.00,60.00,Thursday
12,3526047.74749434
574,6140055.976755604
2,12, 1,12, 0, 1, 0.00,60.00,Friday
12,2638574.429078808
574,7569230.239554706
2,12, 1,12, 0, 2, 0.00,60.00,Friday
12,3509177.332885319
574,9290599.51287685
2,12, 1,12, 0, 3, 0.00,60.00,Friday
12,2287186.909312044
574,10354000.465376575
2,12, 1,12, 0, 4, 0.00,60.00,Friday
12,2276393.9213367856
574,12278993.149742809
2,12, 1,12, 0, 5, 0.00,60.00,Friday
12,2241694.979429045
574,13521948.975667313
2,12, 1,12, 0, 6, 0.00,60.00,Friday
12,7256482.7874799179
574,14103926.88934952
2,12, 1,12, 0, 7, 0.00,60.00,Friday
12,13461813.284127469
574,15045464.242735256
2,12, 1,12, 0, 8, 0.00,60.00,Friday
12,4457962.7722812299
574,13837326.997666112
2,12, 1,12, 0, 9, 0.00,60.00,Friday
12,4195428.095018167
574,12465165.256177905
2,12, 1,12, 0,10, 0.00,60.00,Friday
12,3989990.455232694
574,11239498.212687146
2,12, 1,12, 0,11, 0.00,60.00,Friday
12,21039679.215241255
574,10440745.294987333
2,12, 1,12, 0,12, 0.00,60.00,Friday
12,15981994.612396982
574,8183374.930209665
2,12, 1,12, 0,13, 0.00,60.00,Friday
12,5211803.207342066
574,7916357.16658925
2,12, 1,12, 0,14, 0.00,60.00,Friday
12,5094775.620417133
574,7401334.507380272
2,12, 1,12, 0,15, 0.00,60.00,Friday
12,3994036.9010390278
574,7119909.469425013
2,12, 1,12, 0,16, 0.00,60.00,Friday
12,4123507.6999206889
574,6824162.913560407
2,12, 1,12, 0,17, 0.00,60.00,Friday
12,6094589.299601919
574,8127216.279179729
2,12, 1,12, 0,18, 0.00,60.00,Friday
12,7677210.852893248
574,8317654.293676942
2,12, 1,12, 0,19, 0.00,60.00,Friday
12,8303387.970569468
574,7563848.128275417
2,12, 1,12, 0,20, 0.00,60.00,Friday
12,8694027.541573173
574,7385374.8543117339
2,12, 1,12, 0,21, 0.00,60.00,Friday
12,7951185.142644266
574,8879059.707037354
2,12, 1,12, 0,22, 0.00,60.00,Friday
12,9060412.77648503
574,9863115.549649498
2,12, 1,12, 0,23, 0.00,60.00,Friday
12,5113770.354551083
574,10788988.508457344
2,12, 1,12, 0,24, 0.00,60.00,Friday
12,4808401.24904336
574,11595645.211907288
2,13, 1,13, 0, 1, 0.00,60.00,Saturday
12,2745332.4752348435
574,11517761.106850224
2,13, 1,13, 0, 2, 0.00,60.00,Saturday
12,5129295.820286145
574,10838618.87672792
2,13, 1,13, 0, 3, 0.00,60.00,Saturday
12,2315653.6292542389
574,11406864.642172486
2,13, 1,13, 0, 4, 0.00,60.00,Saturday
12,2248428.54934735
574,11244671.723943225
2,13, 1,13, 0, 5, 0.00,60.00,Saturday
12,2178203.1191823456
574,11173652.25206775
2,13, 1,13, 0, 6, 0.00,60.00,Saturday
12,18478404.388590598
574,12384208.60233739
2,13, 1,13, 0, 7, 0.00,60.00,Saturday
12,6482433.699498094
574,11511858.930296312
2,13, 1,13, 0, 8, 0.00,60.00,Saturday
12,4336366.356387914
574,9339987.276728223
2,13, 1,13, 0, 9, 0.00,60.00,Saturday
12,3990115.1473458416
574,4871503.321275773
2,13, 1,13, 0,10, 0.00,60.00,Saturday
12,6381776.992140975
574,2163691.563114715
2,13, 1,13, 0,11, 0.00,60.00,Saturday
12,3758690.131174403
574,520259.76612294648
2,13, 1,13, 0,12, 0.00,60.00,Saturday
12,5976266.471301947
574,0.0
2,13, 1,13, 0,13, 0.00,60.00,Saturday
12,11306953.871181485
574,0.0
2,13, 1,13, 0,14, 0.00,60.00,Saturday
12,6150911.79507866
574,0.0
2,13, 1,13, 0,15, 0.00,60.00,Saturday
12,3801532.992798267
574,0.0
2,13, 1,13, 0,16, 0.00,60.00,Saturday
12,5136322.1612096349
574,0.0
2,13, 1,13, 0,17, 0.00,60.00,Saturday
12,4740067.995483241
574,0.0
2,13, 1,13, 0,18, 0.00,60.00,Saturday
12,8768875.239381753
574,0.0
2,13, 1,13, 0,19, 0.00,60.00,Saturday
12,11968891.464684457
574,0.0
2,13, 1,13, 0,20, 0.00,60.00,Saturday
12,8065287.224028774
574,0.0
2,13, 1,13, 0,21, 0.00,60.00,Saturday
12,10472528.787487586
574,0.0
2,13, 1,13, 0,22, 0.00,60.00,Saturday
12,24844378.130777278
574,567446.7965837991
2,13, 1,13, 0,23, 0.00,60.00,Saturday
12,7601008.646562632
574,3146650.5986749667
2,13, 1,13, 0,24, 0.00,60.00,Saturday
12,4608954.482772328
574,4003423.4084494637
2,14, 1,14, 0, 1, 0.00,60.00,Sunday
12,2551463.021712448
574,4347345.863955512
2,14, 1,14, 0, 2, 0.00,60.00,Sunday
12,2241787.7062813804
574,4386143.437544687
2,14, 1,14, 0, 3, 0.00,60.00,Sunday
12,2149593.1994173217
574,5264988.159260073
2,14, 1,14, 0, 4, 0.00,60.00,Sunday
12,4968575.421650341
574,6055896.144944892
2,14, 1,14, 0, 5, 0.00,60.00,Sunday
12,15285832.140304387
574,7287916.936326841
2,14, 1,14, 0, 6, 0.00,60.00,Sunday
12,2838556.2461809145
574,6812742.810991285
2,14, 1,14, 0, 7, 0.00,60.00,Sunday
12,8860425.39720688
574,7274102.755206352
2,14, 1,14, 0, 8, 0.00,60.00,Sunday
12,5436374.954073392
574,6583887.134524094
2,14, 1,14, 0, 9, 0.00,60.00,Sunday
12,3977338.0724514278
574,4398933.089514501
2,14, 1,14, 0,10, 0.00,60.00,Sunday
12,8054912.557107
574,2725311.293333288
2,14, 1,14, 0,11, 0.00,60.00,Sunday
12,3642722.332632881
574,731024.941814758
2,14, 1,14, 0,12, 0.00,60.00,Sunday
12,3613045.6653140357
574,0.0
2,14, 1,14, 0,13, 0.00,60.00,Sunday
12,4920367.379804933
574,0.0
2,14, 1,14, 0,14, 0.00,60.00,Sunday
12,3543393.595660419
574,0.0
2,14, 1,14, 0,15, 0.00,60.00,Sunday
12,3621532.992798267
574,0.0
2,14, 1,14, 0,16, 0.00,60.00,Sunday
12,3759000.012432055
574,0.0
2,14, 1,14, 0,17, 0.00,60.00,Sunday
12,11161681.642210685
574,0.0
2,14, 1,14, 0,18, 0.00,60.00,Sunday
12,9297613.257701109
574,0.0
2,14, 1,14, 0,19, 0.00,60.00,Sunday
12,6933964.926396725
574,175820.4959165518
2,14, 1,14, 0,20, 0.00,60.00,Sunday
12,6869912.508716236
574,1428492.2182076872
2,14, 1,14, 0,21, 0.00,60.00,Sunday
12,6430477.334626855
574,3119853.988740228
2,14, 1,14, 0,22, 0.00,60.00,Sunday
12,6958415.8394878529
574,4516357.854103198
2,14, 1,14, 0,23, 0.00,60.00,Sunday
12,6110486.275378586
574,5559372.953002053
2,14, 1,14, 0,24, 0.00,60.00,Sunday
12,3567859.412159438
574,7686493.500554499
2,15, 1,15, 0, 1, 0.00,60.00,Monday
12,3806096.021284987
574,8778804.872391802
2,15, 1,15, 0, 2, 0.00,60.00,Monday
12,2394602.477291814
574,10038118.740946997
2,15, 1,15, 0, 3, 0.00,60.00,Monday
12,2298865.759784524
574,10785951.997326844
2,15, 1,15, 0, 4, 0.00,60.00,Monday
12,2264387.317377639
574,11834919.395575462
2,15, 1,15, 0, 5, 0.00,60.00,Monday
12,2211137.09627511
574,12391741.471717949
2,15, 1,15, 0, 6, 0.00,60.00,Monday
12,2656268.6097012187
574,12263532.79664609
2,15, 1,15, 0, 7, 0.00,60.00,Monday
12,3751749.3492327218
574,13239979.751237644
2,15, 1,15, 0, 8, 0.00,60.00,Monday
12,5554263.694634975
574,11454676.602811329
2,15, 1,15, 0, 9, 0.00,60.00,Monday
12,10459128.875781734
574,5964385.906987805
2,15, 1,15, 0,10, 0.00,60.00,Monday
12,3753765.0178697325
574,2502513.3703010256
2,15, 1,15, 0,11, 0.00,60.00,Monday
12,3575775.8697693638
574,412473.50056741488
2,15, 1,15, 0,12, 0.00,60.00,Monday
12,4762344.807140576
574,0.0