Program Version,EnergyPlus, Version 9.2.0-921312fa1d, YMD=2019.10.18 18:59
1,5,Environment Title[],Latitude[deg],Longitude[deg],Time Zone[],Elevation[m]
2,8,Day of Simulation[],Month[],Day of Month[],DST Indicator[1=yes 0=no],Hour[],StartMinute[],EndMinute[],DayType
3,5,Cumulative Day of Simulation[],Month[],Day of Month[],DST Indicator[1=yes 0=no],DayType  ! When Daily Report Variables Requested
4,2,Cumulative Days of Simulation[],Month[]  ! When Monthly Report Variables Requested
5,1,Cumulative Days of Simulation[] ! When Run Period Report Variables Requested
6,1,Calendar Year of Simulation[] ! When Annual Report Variables Requested
276,9,EMS,central ac supply fan cool disaggregate [J] !Monthly [Value,Min,Day,Hour,Minute,Max,Day,Hour,Minute]
277,11,EMS,central ac supply fan cool disaggregate [J] !RunPeriod [Value,Min,Month,Day,Hour,Minute,Max,Month,Day,Hour,Minute]
278,11,EMS,furnace supply fan heat disaggregate [J] !RunPeriod [Value,Min,Month,Day,Hour,Minute,Max,Month,Day,Hour,Minute]
279,9,EMS,furnace supply fan heat disaggregate [J] !Monthly [Value,Min,Day,Hour,Minute,Max,Day,Hour,Minute]
280,11,EMS,water heater EC adjustment [J] !RunPeriod [Value,Min,Month,Day,Hour,Minute,Max,Month,Day,Hour,Minute]
281,1,LIVING,Zone Mean Air Temperature [C] !Hourly
282,1,VENTED ATTIC,Zone Mean Air Temperature [C] !Hourly
546,11,CENTRAL AC CLG COIL,Cooling Coil Electric Energy [J] !RunPeriod [Value,Min,Month,Day,Hour,Minute,Max,Month,Day,Hour,Minute]
572,11,FURNACE HTG COIL,Heating Coil Gas Energy [J] !RunPeriod [Value,Min,Month,Day,Hour,Minute,Max,Month,Day,Hour,Minute]
837,11,WATER USE CONNECTIONS 1,Water Use Connections Plant Hot Water Energy [J] !RunPeriod [Value,Min,Month,Day,Hour,Minute,Max,Month,Day,Hour,Minute]
874,11,WATER HEATER,Water Heater Heat Loss Energy [J] !RunPeriod [Value,Min,Month,Day,Hour,Minute,Max,Month,Day,Hour,Minute]
889,11,WATER HEATER,Water Heater Electric Energy [J] !RunPeriod [Value,Min,Month,Day,Hour,Minute,Max,Month,Day,Hour,Minute]
927,11,WATER HEATER,Water Heater Off Cycle Parasitic Electric Energy [J] !RunPeriod [Value,Min,Month,Day,Hour,Minute,Max,Month,Day,Hour,Minute]
929,11,WATER HEATER,Water Heater On Cycle Parasitic Electric Energy [J] !RunPeriod [Value,Min,Month,Day,Hour,Minute,Max,Month,Day,Hour,Minute]
1092,11,CENTRAL AC CLG COIL,Cooling Coil Crankcase Heater Electric Energy [J] !RunPeriod [Value,Min,Month,Day,Hour,Minute,Max,Month,Day,Hour,Minute]
End of Data Dictionary
1,RUN PERIOD 1,  39.83,-104.65,  -7.00,1650.00
2,1, 1, 1, 0, 1, 0.00,60.00,Monday
281,20.008618380557338
282,-13.055485875469963
2,1, 1, 1, 0, 2, 0.00,60.00,Monday
281,20.00022208683631
282,-13.46382507994368
2,1, 1, 1, 0, 3, 0.00,60.00,Monday
281,20.00000698835612
282,-13.838495694426154
2,1, 1, 1, 0, 4, 0.00,60.00,Monday
281,20.00000027304832
282,-14.8285756790109
2,1, 1, 1, 0, 5, 0.00,60.00,Monday
281,20.00000001181477
282,-14.994386546498076
2,1, 1, 1, 0, 6, 0.00,60.00,Monday
281,20.000000000532329
282,-14.277783454028443
2,1, 1, 1, 0, 7, 0.00,60.00,Monday
281,20.000000000024195
282,-13.392041873557157
2,1, 1, 1, 0, 8, 0.00,60.00,Monday
281,20.000000000000975
282,-8.906130652279782
2,1, 1, 1, 0, 9, 0.00,60.00,Monday
281,20.00000000000019
282,-6.971175761070992
2,1, 1, 1, 0,10, 0.00,60.00,Monday
281,20.000000000000005
282,-3.195381852618099
2,1, 1, 1, 0,11, 0.00,60.00,Monday
281,19.99999999999998
282,0.38816599913868479
2,1, 1, 1, 0,12, 0.00,60.00,Monday
281,20.0
282,2.5504666966790197
2,1, 1, 1, 0,13, 0.00,60.00,Monday
281,19.99999999999999
282,4.294586327933194
2,1, 1, 1, 0,14, 0.00,60.00,Monday
281,20.0
282,3.3074937684140019
2,1, 1, 1, 0,15, 0.00,60.00,Monday
281,20.000000000000015
282,3.8768044641627106
2,1, 1, 1, 0,16, 0.00,60.00,Monday
281,19.999999999999998
282,2.218136214009353
2,1, 1, 1, 0,17, 0.00,60.00,Monday
281,19.999999999999966
282,-0.4078741933943003
2,1, 1, 1, 0,18, 0.00,60.00,Monday
281,19.999999999999944
282,-2.1030937858669098
2,1, 1, 1, 0,19, 0.00,60.00,Monday
281,20.00000000000015
282,-4.839971102414745
2,1, 1, 1, 0,20, 0.00,60.00,Monday
281,20.00000000000009
282,-5.517086315588794
2,1, 1, 1, 0,21, 0.00,60.00,Monday
281,19.999999999999923
282,-5.981326462420214
2,1, 1, 1, 0,22, 0.00,60.00,Monday
281,20.00000000000008
282,-6.141947242319685
2,1, 1, 1, 0,23, 0.00,60.00,Monday
281,20.000000000000097
282,-6.162279715014137
2,1, 1, 1, 0,24, 0.00,60.00,Monday
281,20.00000000000012
282,-5.066704323529426
2,2, 1, 2, 0, 1, 0.00,60.00,Tuesday
281,19.99999999999999
282,-5.0397904910251329
2,2, 1, 2, 0, 2, 0.00,60.00,Tuesday
281,20.00000000000011
282,-5.612755856929279
2,2, 1, 2, 0, 3, 0.00,60.00,Tuesday
281,19.99999999999993
282,-5.044815261677079
2,2, 1, 2, 0, 4, 0.00,60.00,Tuesday
281,20.000000000000058
282,-6.67572192973917
2,2, 1, 2, 0, 5, 0.00,60.00,Tuesday
281,19.999999999999987
282,-5.671955589476476
2,2, 1, 2, 0, 6, 0.00,60.00,Tuesday
281,20.000000000000108
282,-6.178582808931304
2,2, 1, 2, 0, 7, 0.00,60.00,Tuesday
281,20.000000000000005
282,-4.658430733694387
2,2, 1, 2, 0, 8, 0.00,60.00,Tuesday
281,20.000000000000168
282,-3.4433981212356548
2,2, 1, 2, 0, 9, 0.00,60.00,Tuesday
281,20.0
282,-2.1592857064985124
2,2, 1, 2, 0,10, 0.00,60.00,Tuesday
281,19.99999999999995
282,1.5011719779876494
2,2, 1, 2, 0,11, 0.00,60.00,Tuesday
281,20.000000000000008
282,4.9122918899473089
2,2, 1, 2, 0,12, 0.00,60.00,Tuesday
281,19.999999999999984
282,8.105819404694266
2,2, 1, 2, 0,13, 0.00,60.00,Tuesday
281,19.999999999999998
282,9.091600000947878
2,2, 1, 2, 0,14, 0.00,60.00,Tuesday
281,19.999999999999987
282,9.35910487312037
2,2, 1, 2, 0,15, 0.00,60.00,Tuesday
281,20.019069922244709
282,9.983351776208032
2,2, 1, 2, 0,16, 0.00,60.00,Tuesday
281,20.000080429254095
282,7.899381806441935
2,2, 1, 2, 0,17, 0.00,60.00,Tuesday
281,20.000000775733878
282,6.8122915936628118
2,2, 1, 2, 0,18, 0.00,60.00,Tuesday
281,20.000000011268676
282,5.097006591573533
2,2, 1, 2, 0,19, 0.00,60.00,Tuesday
281,20.0000000002578
282,1.3406655618474648
2,2, 1, 2, 0,20, 0.00,60.00,Tuesday
281,20.00000000000662
282,0.14033065013973138
2,2, 1, 2, 0,21, 0.00,60.00,Tuesday
281,20.00000000000027
282,-1.5691772994796199
2,2, 1, 2, 0,22, 0.00,60.00,Tuesday
281,20.000000000000069
282,-1.1172594996448047
2,2, 1, 2, 0,23, 0.00,60.00,Tuesday
281,20.000000000000044
282,-1.7010245768703303
2,2, 1, 2, 0,24, 0.00,60.00,Tuesday
281,20.00000000000005
282,-0.3578009347626979
2,3, 1, 3, 0, 1, 0.00,60.00,Wednesday
281,19.999999999999927
282,-0.7567211884470093
2,3, 1, 3, 0, 2, 0.00,60.00,Wednesday
281,20.000000000000055
282,-0.709606605393388
2,3, 1, 3, 0, 3, 0.00,60.00,Wednesday
281,20.000000000000044
282,-1.1718907574549769
2,3, 1, 3, 0, 4, 0.00,60.00,Wednesday
281,20.0
282,-1.7450936234947554
2,3, 1, 3, 0, 5, 0.00,60.00,Wednesday
281,20.0000000000001
282,-1.755245821505894
2,3, 1, 3, 0, 6, 0.00,60.00,Wednesday
281,20.000000000000104
282,-1.1733357498312889
2,3, 1, 3, 0, 7, 0.00,60.00,Wednesday
281,20.000000000000186
282,-1.1699336205444964
2,3, 1, 3, 0, 8, 0.00,60.00,Wednesday
281,20.000000000000008
282,-0.6707935990678483
2,3, 1, 3, 0, 9, 0.00,60.00,Wednesday
281,20.000000000000037
282,3.038101008714838
2,3, 1, 3, 0,10, 0.00,60.00,Wednesday
281,20.000000000000044
282,5.34271435322361
2,3, 1, 3, 0,11, 0.00,60.00,Wednesday
281,20.00000000000002
282,5.685951692784009
2,3, 1, 3, 0,12, 0.00,60.00,Wednesday
281,20.000000000000019
282,6.618623161849695
2,3, 1, 3, 0,13, 0.00,60.00,Wednesday
281,20.00000000000002
282,5.59829368289491
2,3, 1, 3, 0,14, 0.00,60.00,Wednesday
281,19.99999999999994
282,4.5998333322312379
2,3, 1, 3, 0,15, 0.00,60.00,Wednesday
281,20.000000000000047
282,2.375592242127667
2,3, 1, 3, 0,16, 0.00,60.00,Wednesday
281,20.000000000000069
282,-0.14415664808386853
2,3, 1, 3, 0,17, 0.00,60.00,Wednesday
281,20.0000000000001
282,-2.7236349296090425
2,3, 1, 3, 0,18, 0.00,60.00,Wednesday
281,20.00000000000004
282,-5.339007661593089
2,3, 1, 3, 0,19, 0.00,60.00,Wednesday
281,20.00000000000004
282,-5.377130686596969
2,3, 1, 3, 0,20, 0.00,60.00,Wednesday
281,20.00000000000009
282,-6.405452143929281
2,3, 1, 3, 0,21, 0.00,60.00,Wednesday
281,19.99999999999994
282,-8.24219957023098
2,3, 1, 3, 0,22, 0.00,60.00,Wednesday
281,20.00000000000011
282,-9.62812111732065
2,3, 1, 3, 0,23, 0.00,60.00,Wednesday
281,20.000000000000065
282,-11.071085482544572
2,3, 1, 3, 0,24, 0.00,60.00,Wednesday
281,20.00000000000001
282,-12.143112296730117
2,4, 1, 4, 0, 1, 0.00,60.00,Thursday
281,20.000000000000129
282,-12.458740798147451
2,4, 1, 4, 0, 2, 0.00,60.00,Thursday
281,19.999999999999969
282,-13.892733265377263
2,4, 1, 4, 0, 3, 0.00,60.00,Thursday
281,20.0000000000002
282,-15.795082202845999
2,4, 1, 4, 0, 4, 0.00,60.00,Thursday
281,20.00000000000014
282,-14.737937849150523
2,4, 1, 4, 0, 5, 0.00,60.00,Thursday
281,20.000000000000087
282,-14.404501859894014
2,4, 1, 4, 0, 6, 0.00,60.00,Thursday
281,20.000000000000008
282,-13.699396896320709
2,4, 1, 4, 0, 7, 0.00,60.00,Thursday
281,20.000000000000143
282,-14.565780118452292
2,4, 1, 4, 0, 8, 0.00,60.00,Thursday
281,20.000000000000008
282,-13.321929232331686
2,4, 1, 4, 0, 9, 0.00,60.00,Thursday
281,20.000000000000019
282,-10.923735516024239
2,4, 1, 4, 0,10, 0.00,60.00,Thursday
281,19.999999999999955
282,-2.5781009463509449
2,4, 1, 4, 0,11, 0.00,60.00,Thursday
281,20.00000000000003
282,1.9439829981279087
2,4, 1, 4, 0,12, 0.00,60.00,Thursday
281,19.999999999999916
282,2.112258316423965
2,4, 1, 4, 0,13, 0.00,60.00,Thursday
281,20.000000000000019
282,7.722386904158499
2,4, 1, 4, 0,14, 0.00,60.00,Thursday
281,20.000000000000019
282,9.437529786052523
2,4, 1, 4, 0,15, 0.00,60.00,Thursday
281,20.0
282,10.917598041761523
2,4, 1, 4, 0,16, 0.00,60.00,Thursday
281,20.00000000000005
282,9.983484874203679
2,4, 1, 4, 0,17, 0.00,60.00,Thursday
281,19.999999999999976
282,7.976251497251886
2,4, 1, 4, 0,18, 0.00,60.00,Thursday
281,20.00000000000004
282,7.19145291176904
2,4, 1, 4, 0,19, 0.00,60.00,Thursday
281,20.000000000000015
282,6.101839832883294
2,4, 1, 4, 0,20, 0.00,60.00,Thursday
281,20.000000000000037
282,6.99928191618098
2,4, 1, 4, 0,21, 0.00,60.00,Thursday
281,20.00000000000002
282,6.04073594871969
2,4, 1, 4, 0,22, 0.00,60.00,Thursday
281,20.000000000000005
282,5.506400464603433
2,4, 1, 4, 0,23, 0.00,60.00,Thursday
281,20.000000000000019
282,4.912653091620371
2,4, 1, 4, 0,24, 0.00,60.00,Thursday
281,19.99999999999996
282,9.75264717649376
2,5, 1, 5, 0, 1, 0.00,60.00,Friday
281,20.00000000000002
282,5.151726467661099
2,5, 1, 5, 0, 2, 0.00,60.00,Friday
281,20.0
282,10.313069706643555
2,5, 1, 5, 0, 3, 0.00,60.00,Friday
281,20.000000000000005
282,10.903864231237579
2,5, 1, 5, 0, 4, 0.00,60.00,Friday
281,20.0
282,9.319040838710994
2,5, 1, 5, 0, 5, 0.00,60.00,Friday
281,20.00000000000005
282,9.251399702553649
2,5, 1, 5, 0, 6, 0.00,60.00,Friday
281,20.00000000000005
282,9.265498123715086
2,5, 1, 5, 0, 7, 0.00,60.00,Friday
281,20.000000000000069
282,5.1279716738987919
2,5, 1, 5, 0, 8, 0.00,60.00,Friday
281,20.000000000000065
282,9.070478343239815
2,5, 1, 5, 0, 9, 0.00,60.00,Friday
281,20.000000000000019
282,8.735928788585588
2,5, 1, 5, 0,10, 0.00,60.00,Friday
281,20.066122631624009
282,12.437661607999253
2,5, 1, 5, 0,11, 0.00,60.00,Friday
281,20.00020828816085
282,12.638976232110247
2,5, 1, 5, 0,12, 0.00,60.00,Friday
281,20.295364614493108
282,14.768595867873018
2,5, 1, 5, 0,13, 0.00,60.00,Friday
281,20.488334248724678
282,14.310927452643965
2,5, 1, 5, 0,14, 0.00,60.00,Friday
281,20.52561154377986
282,12.818392489971889
2,5, 1, 5, 0,15, 0.00,60.00,Friday
281,20.398374569058534
282,10.148369036985857
2,5, 1, 5, 0,16, 0.00,60.00,Friday
281,20.254726848273916
282,8.54694483408005
2,5, 1, 5, 0,17, 0.00,60.00,Friday
281,20.000939107369704
282,5.912390565554823
2,5, 1, 5, 0,18, 0.00,60.00,Friday
281,20.000009296357555
282,5.660995733728011
2,5, 1, 5, 0,19, 0.00,60.00,Friday
281,20.000000124568769
282,3.984778475121155
2,5, 1, 5, 0,20, 0.00,60.00,Friday
281,20.00000000229961
282,3.3263422396429576
2,5, 1, 5, 0,21, 0.00,60.00,Friday
281,20.000000000061957
282,1.767129027402442
2,5, 1, 5, 0,22, 0.00,60.00,Friday
281,20.00000000000178
282,0.19918239738780095
2,5, 1, 5, 0,23, 0.00,60.00,Friday
281,20.000000000000097
282,0.5486600600247371
2,5, 1, 5, 0,24, 0.00,60.00,Friday
281,20.000000000000005
282,-0.0434424392911851
2,6, 1, 6, 0, 1, 0.00,60.00,Saturday
281,20.000000000000044
282,-0.058267326255015228
2,6, 1, 6, 0, 2, 0.00,60.00,Saturday
281,20.000000000000015
282,0.9691320720474752
2,6, 1, 6, 0, 3, 0.00,60.00,Saturday
281,20.000000000000005
282,0.5258924972359188
2,6, 1, 6, 0, 4, 0.00,60.00,Saturday
281,20.000000000000087
282,-0.02691643807439457
2,6, 1, 6, 0, 5, 0.00,60.00,Saturday
281,20.000000000000005
282,-0.6484179209361214
2,6, 1, 6, 0, 6, 0.00,60.00,Saturday
281,20.000000000000015
282,-0.16063902311928447
2,6, 1, 6, 0, 7, 0.00,60.00,Saturday
281,19.999999999999998
282,-0.6835887223098338
2,6, 1, 6, 0, 8, 0.00,60.00,Saturday
281,20.000000000000076
282,-0.6731151151512834
2,6, 1, 6, 0, 9, 0.00,60.00,Saturday
281,20.0
282,-0.665887646308049
2,6, 1, 6, 0,10, 0.00,60.00,Saturday
281,19.99999999999998
282,-0.06662422620767153
2,6, 1, 6, 0,11, 0.00,60.00,Saturday
281,19.999999999999969
282,-0.05331516866124087
2,6, 1, 6, 0,12, 0.00,60.00,Saturday
281,20.00000000000002
282,1.0107534398100063
2,6, 1, 6, 0,13, 0.00,60.00,Saturday
281,20.0
282,1.6627942877848113
2,6, 1, 6, 0,14, 0.00,60.00,Saturday
281,20.000000000000015
282,1.0938194728817857
2,6, 1, 6, 0,15, 0.00,60.00,Saturday
281,19.999999999999976
282,1.6732811666755226
2,6, 1, 6, 0,16, 0.00,60.00,Saturday
281,20.000000000000047
282,0.6043309682969602
2,6, 1, 6, 0,17, 0.00,60.00,Saturday
281,20.000000000000079
282,-0.580221767032923
2,6, 1, 6, 0,18, 0.00,60.00,Saturday
281,20.000000000000005
282,-1.6568046903540266
2,6, 1, 6, 0,19, 0.00,60.00,Saturday
281,20.000000000000168
282,-3.2155074622578305
2,6, 1, 6, 0,20, 0.00,60.00,Saturday
281,20.00000000000001
282,-4.343245070685893
2,6, 1, 6, 0,21, 0.00,60.00,Saturday
281,20.00000000000009
282,-5.813630169744439
2,6, 1, 6, 0,22, 0.00,60.00,Saturday
281,20.000000000000008
282,-7.584132898110008
2,6, 1, 6, 0,23, 0.00,60.00,Saturday
281,20.0
282,-7.69429563502495
2,6, 1, 6, 0,24, 0.00,60.00,Saturday
281,19.999999999999916
282,-8.773347064950406
2,7, 1, 7, 0, 1, 0.00,60.00,Sunday
281,19.999999999999976
282,-8.85763188934851
2,7, 1, 7, 0, 2, 0.00,60.00,Sunday
281,20.0
282,-8.326095807616604
2,7, 1, 7, 0, 3, 0.00,60.00,Sunday
281,20.0
282,-10.454569687245482
2,7, 1, 7, 0, 4, 0.00,60.00,Sunday
281,20.000000000000019
282,-11.813901696591456
2,7, 1, 7, 0, 5, 0.00,60.00,Sunday
281,19.999999999999845
282,-11.943850672683214
2,7, 1, 7, 0, 6, 0.00,60.00,Sunday
281,19.99999999999987
282,-12.725710179722825
2,7, 1, 7, 0, 7, 0.00,60.00,Sunday
281,20.000000000000129
282,-12.766895841986026
2,7, 1, 7, 0, 8, 0.00,60.00,Sunday
281,20.00000000000011
282,-3.5731585241672776
2,7, 1, 7, 0, 9, 0.00,60.00,Sunday
281,19.999999999999948
282,-1.1406655723122253
2,7, 1, 7, 0,10, 0.00,60.00,Sunday
281,20.000000000000026
282,0.23236000713523617
2,7, 1, 7, 0,11, 0.00,60.00,Sunday
281,20.00000000000008
282,2.180462551841483
2,7, 1, 7, 0,12, 0.00,60.00,Sunday
281,20.000000000000087
282,4.587409041987072
2,7, 1, 7, 0,13, 0.00,60.00,Sunday
281,20.00000000000007
282,5.430391494375731
2,7, 1, 7, 0,14, 0.00,60.00,Sunday
281,20.000000000000033
282,5.038899641324915
2,7, 1, 7, 0,15, 0.00,60.00,Sunday
281,20.0
282,5.01287556287378
2,7, 1, 7, 0,16, 0.00,60.00,Sunday
281,19.999999999999984
282,4.474653127782954
2,7, 1, 7, 0,17, 0.00,60.00,Sunday
281,20.000000000000033
282,4.95948918736959
2,7, 1, 7, 0,18, 0.00,60.00,Sunday
281,19.999999999999969
282,5.529926632451859
2,7, 1, 7, 0,19, 0.00,60.00,Sunday
281,20.00000000000004
282,4.946055072045554
2,7, 1, 7, 0,20, 0.00,60.00,Sunday
281,19.99999999999998
282,4.363479723110513
2,7, 1, 7, 0,21, 0.00,60.00,Sunday
281,20.00000000000003
282,2.2512237701631494
2,7, 1, 7, 0,22, 0.00,60.00,Sunday
281,20.0
282,-0.4124235959690214
2,7, 1, 7, 0,23, 0.00,60.00,Sunday
281,19.99999999999993
282,-0.008102932780357647
2,7, 1, 7, 0,24, 0.00,60.00,Sunday
281,20.00000000000007
282,1.5552434916113017
2,8, 1, 8, 0, 1, 0.00,60.00,Monday
281,20.000000000000058
282,1.6184719648184288
2,8, 1, 8, 0, 2, 0.00,60.00,Monday
281,20.00000000000007
282,1.065801045110985
2,8, 1, 8, 0, 3, 0.00,60.00,Monday
281,20.000000000000015
282,-0.5468568950338342
2,8, 1, 8, 0, 4, 0.00,60.00,Monday
281,20.000000000000115
282,-1.6724553320038856
2,8, 1, 8, 0, 5, 0.00,60.00,Monday
281,20.000000000000019
282,-3.2394568612213119
2,8, 1, 8, 0, 6, 0.00,60.00,Monday
281,19.999999999999994
282,-3.270090923360834
2,8, 1, 8, 0, 7, 0.00,60.00,Monday
281,20.000000000000104
282,-4.349999311152181
2,8, 1, 8, 0, 8, 0.00,60.00,Monday
281,20.000000000000047
282,-2.9034073450686668
2,8, 1, 8, 0, 9, 0.00,60.00,Monday
281,20.0
282,1.9688188721620153
2,8, 1, 8, 0,10, 0.00,60.00,Monday
281,20.000000000000044
282,4.646525240485893
2,8, 1, 8, 0,11, 0.00,60.00,Monday
281,20.000000000000019
282,6.969769553812495
2,8, 1, 8, 0,12, 0.00,60.00,Monday
281,19.99999999999999
282,7.679122977103747
2,8, 1, 8, 0,13, 0.00,60.00,Monday
281,20.000000000000005
282,10.440718939018927
2,8, 1, 8, 0,14, 0.00,60.00,Monday
281,19.999999999999998
282,10.482716214666759
2,8, 1, 8, 0,15, 0.00,60.00,Monday
281,20.0
282,7.846852245070902
2,8, 1, 8, 0,16, 0.00,60.00,Monday
281,19.999999999999998
282,6.736746834283912
2,8, 1, 8, 0,17, 0.00,60.00,Monday
281,19.999999999999976
282,4.513440290196165
2,8, 1, 8, 0,18, 0.00,60.00,Monday
281,20.000000000000069
282,0.8620986810317646
2,8, 1, 8, 0,19, 0.00,60.00,Monday
281,20.000000000000076
282,-0.4796356503103339
2,8, 1, 8, 0,20, 0.00,60.00,Monday
281,20.000000000000154
282,-1.6205720732482157
2,8, 1, 8, 0,21, 0.00,60.00,Monday
281,20.000000000000143
282,-1.10700012611413
2,8, 1, 8, 0,22, 0.00,60.00,Monday
281,20.00000000000001
282,-2.1702117885036245
2,8, 1, 8, 0,23, 0.00,60.00,Monday
281,19.999999999999966
282,-1.7437062251077514
2,8, 1, 8, 0,24, 0.00,60.00,Monday
281,20.000000000000094
282,-2.7846988736321025
2,9, 1, 9, 0, 1, 0.00,60.00,Tuesday
281,20.00000000000007
282,-3.2950966299019295
2,9, 1, 9, 0, 2, 0.00,60.00,Tuesday
281,20.000000000000037
282,-3.3225028352559455
2,9, 1, 9, 0, 3, 0.00,60.00,Tuesday
281,20.000000000000214
282,-3.33854582411567
2,9, 1, 9, 0, 4, 0.00,60.00,Tuesday
281,20.000000000000119
282,-3.3474682711587446
2,9, 1, 9, 0, 5, 0.00,60.00,Tuesday
281,20.000000000000008
282,-3.931005220872314
2,9, 1, 9, 0, 6, 0.00,60.00,Tuesday
281,19.999999999999937
282,-3.382477096829229
2,9, 1, 9, 0, 7, 0.00,60.00,Tuesday
281,19.999999999999838
282,-5.298323464679655
2,9, 1, 9, 0, 8, 0.00,60.00,Tuesday
281,19.999999999999984
282,-1.6761102665815644
2,9, 1, 9, 0, 9, 0.00,60.00,Tuesday
281,20.00000000000006
282,0.04873644974647521
2,9, 1, 9, 0,10, 0.00,60.00,Tuesday
281,20.00000000000003
282,2.4426096191027657
2,9, 1, 9, 0,11, 0.00,60.00,Tuesday
281,19.999999999999984
282,3.663787473020465
2,9, 1, 9, 0,12, 0.00,60.00,Tuesday
281,20.00000000000004
282,3.2260625598994179
2,9, 1, 9, 0,13, 0.00,60.00,Tuesday
281,19.99999999999998
282,3.2659641198630675
2,9, 1, 9, 0,14, 0.00,60.00,Tuesday
281,19.999999999999998
282,3.8597143293953639
2,9, 1, 9, 0,15, 0.00,60.00,Tuesday
281,20.000000000000005
282,4.34214303862242
2,9, 1, 9, 0,16, 0.00,60.00,Tuesday
281,19.999999999999998
282,3.8634648751344566
2,9, 1, 9, 0,17, 0.00,60.00,Tuesday
281,20.000000000000047
282,2.789758836716145
2,9, 1, 9, 0,18, 0.00,60.00,Tuesday
281,20.000000000000005
282,1.1462514180566177
2,9, 1, 9, 0,19, 0.00,60.00,Tuesday
281,20.000000000000065
282,0.03402056382097503
2,9, 1, 9, 0,20, 0.00,60.00,Tuesday
281,20.000000000000065
282,0.5308630805508826
2,9, 1, 9, 0,21, 0.00,60.00,Tuesday
281,20.00000000000005
282,-1.671472698545611
2,9, 1, 9, 0,22, 0.00,60.00,Tuesday
281,20.000000000000076
282,-1.704830326858052
2,9, 1, 9, 0,23, 0.00,60.00,Tuesday
281,20.000000000000055
282,-2.783004105054299
2,9, 1, 9, 0,24, 0.00,60.00,Tuesday
281,20.0
282,-4.345912257517753
2,10, 1,10, 0, 1, 0.00,60.00,Wednesday
281,20.0
282,-4.398475265751367
2,10, 1,10, 0, 2, 0.00,60.00,Wednesday
281,20.00000000000001
282,-4.999083893641871
2,10, 1,10, 0, 3, 0.00,60.00,Wednesday
281,19.99999999999993
282,-5.041493992926348
2,10, 1,10, 0, 4, 0.00,60.00,Wednesday
281,19.999999999999998
282,-5.618065933154965
2,10, 1,10, 0, 5, 0.00,60.00,Wednesday
281,20.00000000000013
282,-6.112631880739082
2,10, 1,10, 0, 6, 0.00,60.00,Wednesday
281,20.00000000000025
282,-6.704467409799342
2,10, 1,10, 0, 7, 0.00,60.00,Wednesday
281,20.00000000000012
282,-5.735504303546387
2,10, 1,10, 0, 8, 0.00,60.00,Wednesday
281,20.000000000000136
282,-5.109406587980648
2,10, 1,10, 0, 9, 0.00,60.00,Wednesday
281,19.999999999999955
282,-1.921111044816767
2,10, 1,10, 0,10, 0.00,60.00,Wednesday
281,20.000000000000044
282,1.3717492678161834
2,10, 1,10, 0,11, 0.00,60.00,Wednesday
281,19.99999999999997
282,4.056825775564488
2,10, 1,10, 0,12, 0.00,60.00,Wednesday
281,19.999999999999976
282,5.729489065598199
2,10, 1,10, 0,13, 0.00,60.00,Wednesday
281,20.000000000000005
282,6.537520750723412
2,10, 1,10, 0,14, 0.00,60.00,Wednesday
281,20.0
282,6.855225674969786
2,10, 1,10, 0,15, 0.00,60.00,Wednesday
281,20.000000000000008
282,5.074327583100904
2,10, 1,10, 0,16, 0.00,60.00,Wednesday
281,20.00000000000001
282,5.875898895878537
2,10, 1,10, 0,17, 0.00,60.00,Wednesday
281,19.999999999999969
282,3.3755880475607196
2,10, 1,10, 0,18, 0.00,60.00,Wednesday
281,19.999999999999969
282,0.7686228467116733
2,10, 1,10, 0,19, 0.00,60.00,Wednesday
281,20.00000000000001
282,-0.9795027994639866
2,10, 1,10, 0,20, 0.00,60.00,Wednesday
281,20.00000000000006
282,-2.1192766178018727
2,10, 1,10, 0,21, 0.00,60.00,Wednesday
281,20.00000000000014
282,-1.2160894904983207
2,10, 1,10, 0,22, 0.00,60.00,Wednesday
281,20.000000000000069
282,-3.2864426796496506
2,10, 1,10, 0,23, 0.00,60.00,Wednesday
281,20.00000000000002
282,-4.346117397665339
2,10, 1,10, 0,24, 0.00,60.00,Wednesday
281,20.000000000000019
282,-4.9909635032874
2,11, 1,11, 0, 1, 0.00,60.00,Thursday
281,20.00000000000008
282,-5.589593099268645
2,11, 1,11, 0, 2, 0.00,60.00,Thursday
281,20.000000000000047
282,-6.098173947613108
2,11, 1,11, 0, 3, 0.00,60.00,Thursday
281,20.000000000000005
282,-6.138744352377509
2,11, 1,11, 0, 4, 0.00,60.00,Thursday
281,20.000000000000239
282,-5.6686196828509749
2,11, 1,11, 0, 5, 0.00,60.00,Thursday
281,19.99999999999998
282,-5.082181907874502
2,11, 1,11, 0, 6, 0.00,60.00,Thursday
281,20.000000000000065
282,-4.0168374560145418
2,11, 1,11, 0, 7, 0.00,60.00,Thursday
281,20.000000000000005
282,-3.994841032972403
2,11, 1,11, 0, 8, 0.00,60.00,Thursday
281,20.0
282,-3.3981666342729737
2,11, 1,11, 0, 9, 0.00,60.00,Thursday
281,19.999999999999994
282,-1.812718861301529
2,11, 1,11, 0,10, 0.00,60.00,Thursday
281,20.00000000000003
282,0.8553230396519606
2,11, 1,11, 0,11, 0.00,60.00,Thursday
281,20.000000000000019
282,6.427514195914506
2,11, 1,11, 0,12, 0.00,60.00,Thursday
281,20.0
282,7.211797184405553
2,11, 1,11, 0,13, 0.00,60.00,Thursday
281,20.00000000000001
282,10.355422582851566
2,11, 1,11, 0,14, 0.00,60.00,Thursday
281,19.999999999999994
282,11.572664133368104
2,11, 1,11, 0,15, 0.00,60.00,Thursday
281,20.000000000000005
282,12.115665790052379
2,11, 1,11, 0,16, 0.00,60.00,Thursday
281,20.0
282,10.059596589288342
2,11, 1,11, 0,17, 0.00,60.00,Thursday
281,20.000000000000015
282,8.361543370697188
2,11, 1,11, 0,18, 0.00,60.00,Thursday
281,20.000000000000065
282,7.810243007384033
2,11, 1,11, 0,19, 0.00,60.00,Thursday
281,20.000000000000033
282,7.174205739049506
2,11, 1,11, 0,20, 0.00,60.00,Thursday
281,19.999999999999984
282,5.624104860875655
2,11, 1,11, 0,21, 0.00,60.00,Thursday
281,20.000000000000044
282,4.433291914263512
2,11, 1,11, 0,22, 0.00,60.00,Thursday
281,20.00000000000002
282,5.9784602050882109
2,11, 1,11, 0,23, 0.00,60.00,Thursday
281,20.000000000000055
282,4.4182324008852948
2,11, 1,11, 0,24, 0.00,60.00,Thursday
281,20.000000000000008
282,3.8956482630803617
2,12, 1,12, 0, 1, 0.00,60.00,Friday
281,19.999999999999909
282,2.8391236548314389
2,12, 1,12, 0, 2, 0.00,60.00,Friday
281,20.00000000000005
282,0.1741105905378028
2,12, 1,12, 0, 3, 0.00,60.00,Friday
281,20.00000000000009
282,-0.9319342041148959
2,12, 1,12, 0, 4, 0.00,60.00,Friday
281,20.000000000000126
282,-3.1286908755024447
2,12, 1,12, 0, 5, 0.00,60.00,Friday
281,20.00000000000012
282,-4.778978215810594
2,12, 1,12, 0, 6, 0.00,60.00,Friday
281,19.99999999999993
282,-5.474554152328157
2,12, 1,12, 0, 7, 0.00,60.00,Friday
281,20.00000000000006
282,-6.010769187882256
2,12, 1,12, 0, 8, 0.00,60.00,Friday
281,19.999999999999984
282,-4.456429675602315
2,12, 1,12, 0, 9, 0.00,60.00,Friday
281,20.000000000000026
282,-0.8210651290796228
2,12, 1,12, 0,10, 0.00,60.00,Friday
281,20.000000000000087
282,1.9076472340742468
2,12, 1,12, 0,11, 0.00,60.00,Friday
281,19.99999999999994
282,5.6169385976644599
2,12, 1,12, 0,12, 0.00,60.00,Friday
281,19.999999999999987
282,7.2413320519927109
2,12, 1,12, 0,13, 0.00,60.00,Friday
281,19.999999999999998
282,7.732771713371226
2,12, 1,12, 0,14, 0.00,60.00,Friday
281,20.000000000000037
282,8.848634533358427
2,12, 1,12, 0,15, 0.00,60.00,Friday
281,19.99999999999993
282,8.309635246625915
2,12, 1,12, 0,16, 0.00,60.00,Friday
281,19.999999999999994
282,8.290984647767301
2,12, 1,12, 0,17, 0.00,60.00,Friday
281,19.999999999999984
282,4.508484689075298
2,12, 1,12, 0,18, 0.00,60.00,Friday
281,19.99999999999997
282,2.3850652405764016
2,12, 1,12, 0,19, 0.00,60.00,Friday
281,20.000000000000079
282,2.2532140339072517
2,12, 1,12, 0,20, 0.00,60.00,Friday
281,19.99999999999998
282,2.214368432578696
2,12, 1,12, 0,21, 0.00,60.00,Friday
281,20.000000000000069
282,-0.8384770486779828
2,12, 1,12, 0,22, 0.00,60.00,Friday
281,20.000000000000079
282,-2.0549238284697934
2,12, 1,12, 0,23, 0.00,60.00,Friday
281,19.999999999999898
282,-1.700422363756197
2,12, 1,12, 0,24, 0.00,60.00,Friday
281,19.999999999999873
282,-1.7389429879733494
2,13, 1,13, 0, 1, 0.00,60.00,Saturday
281,20.00000000000002
282,0.4076604857382644
2,13, 1,13, 0, 2, 0.00,60.00,Saturday
281,19.999999999999944
282,2.966597513223664
2,13, 1,13, 0, 3, 0.00,60.00,Saturday
281,20.0
282,2.6592315792838527
2,13, 1,13, 0, 4, 0.00,60.00,Saturday
281,20.000000000000065
282,2.601860508906688
2,13, 1,13, 0, 5, 0.00,60.00,Saturday
281,20.000000000000079
282,3.022323567313931
2,13, 1,13, 0, 6, 0.00,60.00,Saturday
281,20.000000000000026
282,2.640957959499476
2,13, 1,13, 0, 7, 0.00,60.00,Saturday
281,19.999999999999998
282,2.104987020024436
2,13, 1,13, 0, 8, 0.00,60.00,Saturday
281,20.000000000000044
282,3.172358967052271
2,13, 1,13, 0, 9, 0.00,60.00,Saturday
281,19.999999999999987
282,5.268607279778387
2,13, 1,13, 0,10, 0.00,60.00,Saturday
281,19.999999999999969
282,7.427883907823872
2,13, 1,13, 0,11, 0.00,60.00,Saturday
281,20.000000000000008
282,9.04290933321219
2,13, 1,13, 0,12, 0.00,60.00,Saturday
281,20.014202244162477
282,9.103382348652016
2,13, 1,13, 0,13, 0.00,60.00,Saturday
281,20.15860456912461
282,9.649189081550855
2,13, 1,13, 0,14, 0.00,60.00,Saturday
281,20.136679991974199
282,9.244885575132767
2,13, 1,13, 0,15, 0.00,60.00,Saturday
281,20.223455081297279
282,7.9452741939320259
2,13, 1,13, 0,16, 0.00,60.00,Saturday
281,20.247665467920247
282,7.428114511923882
2,13, 1,13, 0,17, 0.00,60.00,Saturday
281,20.000050153547318
282,8.172740109925677
2,13, 1,13, 0,18, 0.00,60.00,Saturday
281,20.00000048930104
282,7.112239347265405
2,13, 1,13, 0,19, 0.00,60.00,Saturday
281,20.00000000603147
282,6.621468904510437
2,13, 1,13, 0,20, 0.00,60.00,Saturday
281,20.000000000071215
282,4.907989335618462
2,13, 1,13, 0,21, 0.00,60.00,Saturday
281,20.00000000000106
282,5.9439777383411249
2,13, 1,13, 0,22, 0.00,60.00,Saturday
281,20.00000000000006
282,3.3665901740158938
2,13, 1,13, 0,23, 0.00,60.00,Saturday
281,20.000000000000015
282,1.7876965115072157
2,13, 1,13, 0,24, 0.00,60.00,Saturday
281,20.000000000000005
282,2.7273735367423836
2,14, 1,14, 0, 1, 0.00,60.00,Sunday
281,20.000000000000065
282,5.428441074912575
2,14, 1,14, 0, 2, 0.00,60.00,Sunday
281,20.000000000000005
282,6.388977770504705
2,14, 1,14, 0, 3, 0.00,60.00,Sunday
281,20.00000000000003
282,7.038391639863408
2,14, 1,14, 0, 4, 0.00,60.00,Sunday
281,20.0
282,6.602572120514243
2,14, 1,14, 0, 5, 0.00,60.00,Sunday
281,20.0
282,6.606623946976557
2,14, 1,14, 0, 6, 0.00,60.00,Sunday
281,20.000000000000047
282,6.590863449740763
2,14, 1,14, 0, 7, 0.00,60.00,Sunday
281,20.000000000000019
282,6.62318026618265
2,14, 1,14, 0, 8, 0.00,60.00,Sunday
281,20.000000000000058
282,6.635757712695139
2,14, 1,14, 0, 9, 0.00,60.00,Sunday
281,20.000000000000044
282,8.18516656384242
2,14, 1,14, 0,10, 0.00,60.00,Sunday
281,20.00000000000003
282,9.82730078471494
2,14, 1,14, 0,11, 0.00,60.00,Sunday
281,20.0
282,12.045190345885361
2,14, 1,14, 0,12, 0.00,60.00,Sunday
281,20.167588464777084
282,12.633727557553446
2,14, 1,14, 0,13, 0.00,60.00,Sunday
281,20.123866850604644
282,13.122125276076713
2,14, 1,14, 0,14, 0.00,60.00,Sunday
281,20.022865984596014
282,13.25243356844886
2,14, 1,14, 0,15, 0.00,60.00,Sunday
281,20.00001329357944
282,12.805291883222756
2,14, 1,14, 0,16, 0.00,60.00,Sunday
281,20.000000077698599
282,12.225254857550344
2,14, 1,14, 0,17, 0.00,60.00,Sunday
281,20.000000001039436
282,10.127196171754627
2,14, 1,14, 0,18, 0.00,60.00,Sunday
281,20.00000000001136
282,8.99805930711348
2,14, 1,14, 0,19, 0.00,60.00,Sunday
281,20.000000000000165
282,7.287331898844854
2,14, 1,14, 0,20, 0.00,60.00,Sunday
281,20.00000000000007
282,5.693858385048174
2,14, 1,14, 0,21, 0.00,60.00,Sunday
281,20.000000000000065
282,2.962232420277331
2,14, 1,14, 0,22, 0.00,60.00,Sunday
281,19.999999999999937
282,1.2631498837234084
2,14, 1,14, 0,23, 0.00,60.00,Sunday
281,19.999999999999998
282,0.6898580341666554
2,14, 1,14, 0,24, 0.00,60.00,Sunday
281,20.000000000000058
282,-0.9781962099156297
2,15, 1,15, 0, 1, 0.00,60.00,Monday
281,20.000000000000019
282,-1.0489074177824108
2,15, 1,15, 0, 2, 0.00,60.00,Monday
281,19.999999999999909
282,-1.6454478158709439
2,15, 1,15, 0, 3, 0.00,60.00,Monday
281,20.00000000000009
282,-1.7251032912094298
2,15, 1,15, 0, 4, 0.00,60.00,Monday