Program Version,EnergyPlus, Version 9.3.0-baff08990c, YMD=2020.06.05 10:53
1,5,Environment Title[],Latitude[deg],Longitude[deg],Time Zone[],Elevation[m]
2,8,Day of Simulation[],Month[],Day of Month[],DST Indicator[1=yes 0=no],Hour[],StartMinute[],EndMinute[],DayType
3,5,Cumulative Day of Simulation[],Month[],Day of Month[],DST Indicator[1=yes 0=no],DayType  ! When Daily Meters Requested
4,2,Cumulative Days of Simulation[],Month[]  ! When Monthly Meters Requested
5,1,Cumulative Days of Simulation[] ! When Run Period Meters Requested
6,1,Calendar Year of Simulation[] ! When Annual Meters Requested
21,11,Electricity:Facility [J] !RunPeriod [Value,Min,Month,Day,Hour,Minute,Max,Month,Day,Hour,Minute]
833,11,Gas:Facility [J] !RunPeriod [Value,Min,Month,Day,Hour,Minute,Max,Month,Day,Hour,Minute]
112,11,interior lighting:InteriorLights:Electricity [J] !RunPeriod [Value,Min,Month,Day,Hour,Minute,Max,Month,Day,Hour,Minute]
33,11,ExteriorLights:Electricity [J] !RunPeriod [Value,Min,Month,Day,Hour,Minute,Max,Month,Day,Hour,Minute]
224,11,mech vent:InteriorEquipment:Electricity [J] !RunPeriod [Value,Min,Month,Day,Hour,Minute,Max,Month,Day,Hour,Minute]
275,11,whole house fan:InteriorEquipment:Electricity [J] !RunPeriod [Value,Min,Month,Day,Hour,Minute,Max,Month,Day,Hour,Minute]
209,11,fridge:InteriorEquipment:Electricity [J] !RunPeriod [Value,Min,Month,Day,Hour,Minute,Max,Month,Day,Hour,Minute]
194,11,dishwasher:InteriorEquipment:Electricity [J] !RunPeriod [Value,Min,Month,Day,Hour,Minute,Max,Month,Day,Hour,Minute]
164,11,clothes washer:InteriorEquipment:Electricity [J] !RunPeriod [Value,Min,Month,Day,Hour,Minute,Max,Month,Day,Hour,Minute]
149,11,clothes dryer:InteriorEquipment:Electricity [J] !RunPeriod [Value,Min,Month,Day,Hour,Minute,Max,Month,Day,Hour,Minute]
179,11,cooking range:InteriorEquipment:Electricity [J] !RunPeriod [Value,Min,Month,Day,Hour,Minute,Max,Month,Day,Hour,Minute]
260,11,misc tv:InteriorEquipment:Electricity [J] !RunPeriod [Value,Min,Month,Day,Hour,Minute,Max,Month,Day,Hour,Minute]
245,11,misc plug loads:InteriorEquipment:Electricity [J] !RunPeriod [Value,Min,Month,Day,Hour,Minute,Max,Month,Day,Hour,Minute]
17,1,Electricity:Facility [J] !Hourly
829,1,Gas:Facility [J] !Hourly
108,1,interior lighting:InteriorLights:Electricity [J] !Hourly
29,1,ExteriorLights:Electricity [J] !Hourly
220,1,mech vent:InteriorEquipment:Electricity [J] !Hourly
271,1,whole house fan:InteriorEquipment:Electricity [J] !Hourly
205,1,fridge:InteriorEquipment:Electricity [J] !Hourly
190,1,dishwasher:InteriorEquipment:Electricity [J] !Hourly
160,1,clothes washer:InteriorEquipment:Electricity [J] !Hourly
145,1,clothes dryer:InteriorEquipment:Electricity [J] !Hourly
175,1,cooking range:InteriorEquipment:Electricity [J] !Hourly
256,1,misc tv:InteriorEquipment:Electricity [J] !Hourly
241,1,misc plug loads:InteriorEquipment:Electricity [J] !Hourly
End of Data Dictionary
1,RUN PERIOD 1,  39.83,-104.65,  -7.00,1650.00
2,1, 1, 1, 0, 1, 0.00,60.00,Monday
17,2715759.355363483
29,31520.721656648944
108,350751.86013675309
145,72737.51299161969
160,0.0
175,33823.53604600406
190,0.0
205,227930.72181057043
220,0.0
241,1208423.3329248299
256,304933.84876410107
271,0.0
829,15474678.816796512
2,1, 1, 1, 0, 2, 0.00,60.00,Monday
17,2455216.6338538455
29,18912.432993989292
108,210451.11608205099
145,43642.507794971745
160,0.0
175,33823.53604600406
190,0.0
205,222232.45376530625
220,0.0
241,1117791.5829554678
256,282063.8101067935
271,0.0
829,17533395.52430088
2,1, 1, 1, 0, 3, 0.00,60.00,Monday
17,2365546.166461325
29,12608.288662659528
108,140300.74405470069
145,29095.005196647813
160,0.0
175,19327.734883430905
190,0.0
205,216534.18572004169
220,0.0
241,1117791.5829554678
256,282063.8101067935
271,0.0
829,18623254.32076153
2,1, 1, 1, 0, 4, 0.00,60.00,Monday
17,2323250.4339760208
29,12608.288662659528
108,140300.74405470069
145,14547.502598323936
160,0.0
175,19327.734883430905
190,0.0
205,210835.9176747775
220,0.0
241,1087580.999632347
256,274440.4638876909
271,0.0
829,19422408.789912456
2,1, 1, 1, 0, 5, 0.00,60.00,Monday
17,2255098.57116283
29,14017.579698740728
108,155982.85494556168
145,29095.005196647813
160,0.0
175,33823.53604600406
190,0.0
205,205137.64962951334
220,0.0
241,996949.2496629846
256,251570.42523038339
271,0.0
829,19671182.488985119
2,1, 1, 1, 0, 6, 0.00,60.00,Monday
17,2685024.3417544125
29,38462.59422001201
108,427998.6548311974
145,43642.507794971745
160,0.0
175,53151.2709294349
190,0.0
205,205137.64962951334
220,0.0
241,1087580.999632347
256,274440.4638876909
271,0.0
829,18966803.6492877
2,1, 1, 1, 0, 7, 0.00,60.00,Monday
17,3714819.9614909619
29,90299.55374739846
108,1004822.6938274336
145,116380.02078659136
160,0.0
175,120798.34302144323
190,0.0
205,216534.18572004169
220,0.0
241,1299055.0828941924
256,327803.8874214086
271,0.0
829,18182836.43427266
2,1, 1, 1, 0, 8, 0.00,60.00,Monday
17,5497087.446371118
29,114271.75744381984
108,1271577.215811016
145,232760.0415731827
160,0.0
175,202941.21627602424
190,0.0
205,227930.72181057043
220,0.0
241,1419897.4161866753
256,358297.2722978187
271,0.0
829,16996716.939558746
2,1, 1, 1, 0, 9, 0.00,60.00,Monday
17,12225191.484361347
29,121438.7837423188
108,1351329.444621973
145,349140.06235977416
160,1960953.712395847
175,222268.95115945536
190,0.0
205,233628.98985583458
220,0.0
241,1027159.8329861055
256,259193.77144948589
271,0.0
829,15057522.954092827
2,1, 1, 1, 0,10, 0.00,60.00,Monday
17,3885031.401935312
29,124830.57748974454
108,1389072.1707901357
145,494615.0883430129
160,0.0
175,231932.81860117054
190,0.0
205,233628.98985583458
220,0.0
241,694843.4164317773
256,175336.9630393581
271,0.0
829,10367894.336149773
2,1, 1, 1, 0,11, 0.00,60.00,Monday
17,3696100.6780948366
29,121436.52005279417
108,1351304.25505556
145,567352.6013346326
160,0.0
175,202941.21627602424
190,0.0
205,227930.72181057043
220,0.0
241,725053.9997548979
256,182960.30925846063
271,0.0
829,6942544.842911429
2,1, 1, 1, 0,12, 0.00,60.00,Monday
17,3702168.0570078177
29,116734.14550150292
108,1298977.8318571493
145,589173.8552321184
160,0.0
175,241596.68604288577
190,0.0
205,227930.72181057043
220,0.0
241,755264.5830780187
256,190583.65547756313
271,0.0
829,5159608.711589138
2,1, 1, 1, 0,13, 0.00,60.00,Monday
17,4819196.279696659
29,113340.08806455229
108,1261209.916122571
145,538257.5961379845
160,0.0
175,275420.22208889006
190,0.0
205,239327.25790109879
220,0.0
241,725053.9997548979
256,182960.30925846063
271,0.0
829,4724120.40850942
2,1, 1, 1, 0,14, 0.00,60.00,Monday
17,3645808.646208575
29,112341.33688407114
108,1250096.1529865785
145,487341.3370438513
160,0.0
175,222268.95115945536
190,0.0
205,239327.25790109879
220,0.0
241,845896.3330473809
256,213453.69413487073
271,0.0
829,4814155.209900961
2,1, 1, 1, 0,15, 0.00,60.00,Monday
17,4920656.387073776
29,114091.83433341766
108,1269575.0926888814
145,414603.8240522317
160,0.0
175,275420.22208889006
190,0.0
205,239327.25790109879
220,0.0
241,936528.0830167432
256,236323.73279217829
271,0.0
829,3915736.5281375965
2,1, 1, 1, 0,16, 0.00,60.00,Monday
17,5482803.519870773
29,124772.48411455617
108,1388425.7274875076
145,443698.82924887907
160,379560.32469745076
175,212605.08371773945
190,0.0
205,233628.98985583458
220,0.0
241,966738.6663398639
256,243947.07901128083
271,0.0
829,3874647.397942058
2,1, 1, 1, 0,17, 0.00,60.00,Monday
17,5854679.710665213
29,153230.21491511088
108,1705093.6680979355
145,400056.32145390738
160,0.0
175,444537.90231891
190,0.0
205,250723.79399162753
220,0.0
241,1178212.7496017093
256,297310.5025449985
271,0.0
829,5688860.172588321
2,1, 1, 1, 0,18, 0.00,60.00,Monday
17,7428007.86956062
29,203210.06438551093
108,2261252.418587706
145,392782.5701547458
160,0.0
175,724790.058128658
190,0.0
205,273516.86617268456
220,0.0
241,1601160.9161253998
256,404037.3496124338
271,0.0
829,7719760.482573828
2,1, 1, 1, 0,19, 0.00,60.00,Monday
17,15356852.886303947
29,249271.51164091205
108,2773808.5231531264
145,370961.31625726
160,0.0
175,565336.2453403532
190,0.0
205,284913.40226321297
220,0.0
241,1903266.749356607
256,480270.8118034591
271,0.0
829,9894773.102429983
2,1, 1, 1, 0,20, 0.00,60.00,Monday
17,7843102.778727342
29,252368.5332648852
108,2808271.1254794669
145,370961.31625726
160,0.0
175,289916.02325146328
190,0.0
205,273516.86617268456
220,0.0
241,2024109.08264909
256,510764.1966798692
271,0.0
829,10459665.965301713
2,1, 1, 1, 0,21, 0.00,60.00,Monday
17,6436880.658165718
29,209519.52997124717
108,2331462.0037226008
145,378235.06755642159
160,0.0
175,169117.68023001997
190,0.0
205,267818.59812742008
220,0.0
241,2144951.415941573
256,541257.5815562792
271,0.0
829,10861251.483397617
2,1, 1, 1, 0,22, 0.00,60.00,Monday
17,6894634.968949012
29,158078.74132085147
108,1759046.419378836
145,392782.5701547458
160,0.0
175,120798.34302144323
190,0.0
205,262120.3300821558
220,0.0
241,2084530.2492953318
256,526010.8891180742
271,0.0
829,11943648.710441957
2,1, 1, 1, 0,23, 0.00,60.00,Monday
17,4981279.569864331
29,136634.78396478998
108,1520425.3619911732
145,320045.05716312609
160,0.0
175,77310.93953372377
190,0.0
205,250723.79399162753
220,0.0
241,1782424.4160641244
256,449777.426927049
271,0.0
829,13363374.066732416
2,1, 1, 1, 0,24, 0.00,60.00,Monday
17,3618323.7107273826
29,63480.3875582901
108,706388.1424039514
145,174570.03117988676
160,0.0
175,53151.2709294349
190,0.0
205,233628.98985583458
220,0.0
241,1510529.1661560375
256,381167.31095512627
271,0.0
829,15969371.36413542
2,2, 1, 2, 0, 1, 0.00,60.00,Tuesday
17,2747676.8215202086
29,31520.721656648944
108,350751.86013675309
145,72737.51299161969
160,0.0
175,33823.53604600406
190,0.0
205,227930.72181057043
220,0.0
241,1208423.3329248299
256,304933.84876410107
271,0.0
829,17090684.767081176
2,2, 1, 2, 0, 2, 0.00,60.00,Tuesday
17,2452472.5853872227
29,18912.432993989292
108,210451.11608205099
145,43642.507794971745
160,0.0
175,33823.53604600406
190,0.0
205,222232.45376530625
220,0.0
241,1117791.5829554678
256,282063.8101067935
271,0.0
829,17394462.232160536
2,2, 1, 2, 0, 3, 0.00,60.00,Tuesday
17,2344687.6671630626
29,12608.288662659528
108,140300.74405470069
145,29095.005196647813
160,0.0
175,19327.734883430905
190,0.0
205,216534.18572004169
220,0.0
241,1117791.5829554678
256,282063.8101067935
271,0.0
829,17567172.399518607
2,2, 1, 2, 0, 4, 0.00,60.00,Tuesday
17,2312155.3421125307
29,12608.288662659528
108,140300.74405470069
145,14547.502598323936
160,0.0
175,19327.734883430905
190,0.0
205,210835.9176747775
220,0.0
241,1087580.999632347
256,274440.4638876909
271,0.0
829,18860655.723979404
2,2, 1, 2, 0, 5, 0.00,60.00,Tuesday
17,3346942.065985698
29,14017.579698740728
108,155982.85494556168
145,29095.005196647813
160,0.0
175,33823.53604600406
190,0.0
205,205137.64962951334
220,0.0
241,996949.2496629846
256,251570.42523038339
271,0.0
829,17581553.7972127
2,2, 1, 2, 0, 6, 0.00,60.00,Tuesday
17,2661414.489813715
29,38462.59422001201
108,427998.6548311974
145,43642.507794971745
160,0.0
175,53151.2709294349
190,0.0
205,205137.64962951334
220,0.0
241,1087580.999632347
256,274440.4638876909
271,0.0
829,17771418.619844598
2,2, 1, 2, 0, 7, 0.00,60.00,Tuesday
17,3680764.306561418
29,90299.55374739846
108,1004822.6938274336
145,116380.02078659136
160,0.0
175,120798.34302144323
190,0.0
205,216534.18572004169
220,0.0
241,1299055.0828941924
256,327803.8874214086
271,0.0
829,16458572.335839902
2,2, 1, 2, 0, 8, 0.00,60.00,Tuesday
17,5479100.659212426
29,114271.75744381984
108,1271577.215811016
145,232760.0415731827
160,0.0
175,202941.21627602424
190,0.0
205,227930.72181057043
220,0.0
241,1419897.4161866753
256,358297.2722978187
271,0.0
829,14604099.837982305
2,2, 1, 2, 0, 9, 0.00,60.00,Tuesday
17,4007550.2432897018
29,121438.7837423188
108,1351329.444621973
145,349140.06235977416
160,0.0
175,222268.95115945536
190,0.0
205,233628.98985583458
220,0.0
241,1027159.8329861055
256,259193.77144948589
271,0.0
829,13335659.637118724
2,2, 1, 2, 0,10, 0.00,60.00,Tuesday
17,4953669.397456945
29,124830.57748974454
108,1389072.1707901357
145,494615.0883430129
160,0.0
175,231932.81860117054
190,0.0
205,233628.98985583458
220,0.0
241,694843.4164317773
256,175336.9630393581
271,0.0
829,9085976.579771428
2,2, 1, 2, 0,11, 0.00,60.00,Tuesday
17,4898044.407982297
29,121436.52005279417
108,1351304.25505556
145,567352.6013346326
160,0.0
175,202941.21627602424
190,0.0
205,227930.72181057043
220,0.0
241,725053.9997548979
256,182960.30925846063
271,0.0
829,5222297.22779999
2,2, 1, 2, 0,12, 0.00,60.00,Tuesday
17,4766510.0725925699
29,116734.14550150292
108,1298977.8318571493
145,589173.8552321184
160,0.0
175,241596.68604288577
190,0.0
205,227930.72181057043
220,0.0
241,755264.5830780187
256,190583.65547756313
271,0.0
829,2956429.3959310685
2,2, 1, 2, 0,13, 0.00,60.00,Tuesday
17,3554103.6162969239
29,113340.08806455229
108,1261209.916122571
145,538257.5961379845
160,0.0
175,275420.22208889006
190,0.0
205,239327.25790109879
220,0.0
241,725053.9997548979
256,182960.30925846063
271,0.0
829,1951017.658008672
2,2, 1, 2, 0,14, 0.00,60.00,Tuesday
17,3584523.669932867
29,112341.33688407114
108,1250096.1529865785
145,487341.3370438513
160,0.0
175,222268.95115945536
190,0.0
205,239327.25790109879
220,0.0
241,845896.3330473809
256,213453.69413487073
271,0.0
829,1711249.5519676333
2,2, 1, 2, 0,15, 0.00,60.00,Tuesday
17,3493196.4504567177
29,114091.83433341766
108,1269575.0926888814
145,414603.8240522317
160,0.0
175,275420.22208889006
190,0.0
205,239327.25790109879
220,0.0
241,936528.0830167432
256,236323.73279217829
271,0.0
829,370941.4690572825
2,2, 1, 2, 0,16, 0.00,60.00,Tuesday
17,4993116.036993501
29,124772.48411455617
108,1388425.7274875076
145,443698.82924887907
160,0.0
175,212605.08371773945
190,0.0
205,233628.98985583458
220,0.0
241,966738.6663398639
256,243947.07901128083
271,0.0
829,1072436.1919876463
2,2, 1, 2, 0,17, 0.00,60.00,Tuesday
17,4649098.131710068
29,153230.21491511088
108,1705093.6680979355
145,400056.32145390738
160,0.0
175,444537.90231891
190,0.0
205,250723.79399162753
220,0.0
241,1178212.7496017093
256,297310.5025449985
271,0.0
829,2021837.5422937256
2,2, 1, 2, 0,18, 0.00,60.00,Tuesday
17,7265944.77734133
29,203210.06438551093
108,2261252.418587706
145,392782.5701547458
160,0.0
175,724790.058128658
190,0.0
205,273516.86617268456
220,0.0
241,1601160.9161253998
256,404037.3496124338
271,0.0
829,3030822.3797945
2,2, 1, 2, 0,19, 0.00,60.00,Tuesday
17,6902156.930218693
29,249271.51164091205
108,2773808.5231531264
145,370961.31625726
160,0.0
175,565336.2453403532
190,0.0
205,284913.40226321297
220,0.0
241,1903266.749356607
256,480270.8118034591
271,0.0
829,4775918.210569373
2,2, 1, 2, 0,20, 0.00,60.00,Tuesday
17,6823549.037931318
29,252368.5332648852
108,2808271.1254794669
145,370961.31625726
160,0.0
175,289916.02325146328
190,0.0
205,273516.86617268456
220,0.0
241,2024109.08264909
256,510764.1966798692
271,0.0
829,5753776.828312202
2,2, 1, 2, 0,21, 0.00,60.00,Tuesday
17,6370381.785738396
29,209519.52997124717
108,2331462.0037226008
145,378235.06755642159
160,0.0
175,169117.68023001997
190,0.0
205,267818.59812742008
220,0.0
241,2144951.415941573
256,541257.5815562792
271,0.0
829,7494362.238427599
2,2, 1, 2, 0,22, 0.00,60.00,Tuesday
17,5636012.88877604
29,158078.74132085147
108,1759046.419378836
145,392782.5701547458
160,0.0
175,120798.34302144323
190,0.0
205,262120.3300821558
220,0.0
241,2084530.2492953318
256,526010.8891180742
271,0.0
829,7728551.723430727
2,2, 1, 2, 0,23, 0.00,60.00,Tuesday
17,5344269.594460032
29,136634.78396478998
108,1520425.3619911732
145,320045.05716312609
160,0.0
175,77310.93953372377
190,0.0
205,250723.79399162753
220,0.0
241,1782424.4160641244
256,449777.426927049
271,0.0
829,7725146.867464629
2,2, 1, 2, 0,24, 0.00,60.00,Tuesday
17,8982381.001510483
29,63480.3875582901
108,706388.1424039514
145,174570.03117988676
160,0.0
175,53151.2709294349
190,0.0
205,233628.98985583458
220,0.0
241,1510529.1661560375
256,381167.31095512627
271,0.0
829,9704848.369854488
2,3, 1, 3, 0, 1, 0.00,60.00,Wednesday
17,2629002.3380499917
29,31520.721656648944
108,350751.86013675309
145,72737.51299161969
160,0.0
175,33823.53604600406
190,0.0
205,227930.72181057043
220,0.0
241,1208423.3329248299
256,304933.84876410107
271,0.0
829,11082104.05791294
2,3, 1, 3, 0, 2, 0.00,60.00,Wednesday
17,2351802.1320853477
29,18912.432993989292
108,210451.11608205099
145,43642.507794971745
160,0.0
175,33823.53604600406
190,0.0
205,222232.45376530625
220,0.0
241,1117791.5829554678
256,282063.8101067935
271,0.0
829,12297439.468672594
2,3, 1, 3, 0, 3, 0.00,60.00,Wednesday
17,2258808.984014027
29,12608.288662659528
108,140300.74405470069
145,29095.005196647813
160,0.0
175,19327.734883430905
190,0.0
205,216534.18572004169
220,0.0
241,1117791.5829554678
256,282063.8101067935
271,0.0
829,13219068.377413728
2,3, 1, 3, 0, 4, 0.00,60.00,Wednesday
17,3373482.9438257405
29,12608.288662659528
108,140300.74405470069
145,14547.502598323936
160,0.0
175,19327.734883430905
190,0.0
205,210835.9176747775
220,0.0
241,1087580.999632347
256,274440.4638876909
271,0.0
829,14291586.505224536
2,3, 1, 3, 0, 5, 0.00,60.00,Wednesday
17,2162384.8314723765
29,14017.579698740728
108,155982.85494556168
145,29095.005196647813
160,0.0
175,33823.53604600406
190,0.0
205,205137.64962951334
220,0.0
241,996949.2496629846
256,251570.42523038339
271,0.0
829,14977014.277848857
2,3, 1, 3, 0, 6, 0.00,60.00,Wednesday
17,2609266.6146798587
29,38462.59422001201
108,427998.6548311974
145,43642.507794971745
160,0.0
175,53151.2709294349
190,0.0
205,205137.64962951334
220,0.0
241,1087580.999632347
256,274440.4638876909
271,0.0
829,15131131.446131796
2,3, 1, 3, 0, 7, 0.00,60.00,Wednesday
17,3637263.2984112945
29,90299.55374739846
108,1004822.6938274336
145,116380.02078659136
160,0.0
175,120798.34302144323
190,0.0
205,216534.18572004169
220,0.0
241,1299055.0828941924
256,327803.8874214086
271,0.0
829,14256082.7124846
2,3, 1, 3, 0, 8, 0.00,60.00,Wednesday
17,4283632.258267704
29,114271.75744381984
108,1271577.215811016
145,232760.0415731827
160,0.0
175,202941.21627602424
190,0.0
205,227930.72181057043
220,0.0
241,1419897.4161866753
256,358297.2722978187
271,0.0
829,13971896.537473558
2,3, 1, 3, 0, 9, 0.00,60.00,Wednesday
17,3950958.4390437339
29,121438.7837423188
108,1351329.444621973
145,349140.06235977416
160,0.0
175,222268.95115945536
190,0.0
205,233628.98985583458
220,0.0
241,1027159.8329861055
256,259193.77144948589
271,0.0
829,10470372.901957263
2,3, 1, 3, 0,10, 0.00,60.00,Wednesday
17,17457558.210298625
29,124830.57748974454
108,1389072.1707901357
145,494615.0883430129
160,0.0
175,231932.81860117054
190,0.0
205,233628.98985583458
220,0.0
241,694843.4164317773
256,175336.9630393581
271,0.0
829,8818358.342731294
2,3, 1, 3, 0,11, 0.00,60.00,Wednesday
17,12770719.829691995
29,121436.52005279417
108,1351304.25505556
145,567352.6013346326
160,0.0
175,202941.21627602424
190,0.0
205,227930.72181057043
220,0.0
241,725053.9997548979
256,182960.30925846063
271,0.0
829,5922879.852529674
2,3, 1, 3, 0,12, 0.00,60.00,Wednesday
17,4711412.163920552
29,116734.14550150292
108,1298977.8318571493
145,589173.8552321184
160,0.0
175,241596.68604288577
190,0.0
205,227930.72181057043
220,0.0
241,755264.5830780187
256,190583.65547756313
271,0.0
829,4269891.725650081
2,3, 1, 3, 0,13, 0.00,60.00,Wednesday
17,3601162.4999126198
29,113340.08806455229
108,1261209.916122571
145,538257.5961379845
160,0.0
175,275420.22208889006
190,0.0
205,239327.25790109879
220,0.0
241,725053.9997548979
256,182960.30925846063
271,0.0
829,4333645.26269696
2,3, 1, 3, 0,14, 0.00,60.00,Wednesday
17,3652988.5087075436
29,112341.33688407114
108,1250096.1529865785
145,487341.3370438513
160,0.0
175,222268.95115945536
190,0.0
205,239327.25790109879
220,0.0
241,845896.3330473809
256,213453.69413487073
271,0.0
829,5177677.1907369759
2,3, 1, 3, 0,15, 0.00,60.00,Wednesday
17,4884272.941775795
29,114091.83433341766
108,1269575.0926888814
145,414603.8240522317
160,0.0
175,275420.22208889006
190,0.0
205,239327.25790109879
220,0.0
241,936528.0830167432
256,236323.73279217829
271,0.0
829,4268784.970895895
2,3, 1, 3, 0,16, 0.00,60.00,Wednesday
17,3918345.3884753754
29,124772.48411455617
108,1388425.7274875076
145,443698.82924887907
160,0.0
175,212605.08371773945
190,0.0
205,233628.98985583458
220,0.0
241,966738.6663398639
256,243947.07901128083
271,0.0
829,6304975.538182845
2,3, 1, 3, 0,17, 0.00,60.00,Wednesday
17,4774987.891530747
29,153230.21491511088
108,1705093.6680979355
145,400056.32145390738
160,0.0
175,444537.90231891
190,0.0
205,250723.79399162753
220,0.0
241,1178212.7496017093
256,297310.5025449985
271,0.0
829,8395733.262936857
2,3, 1, 3, 0,18, 0.00,60.00,Wednesday
17,6234671.717464278
29,203210.06438551093
108,2261252.418587706
145,392782.5701547458
160,0.0
175,724790.058128658
190,0.0
205,273516.86617268456
220,0.0
241,1601160.9161253998
256,404037.3496124338
271,0.0
829,9818393.941842447
2,3, 1, 3, 0,19, 0.00,60.00,Wednesday
17,8203700.1792577779
29,249271.51164091205
108,2773808.5231531264
145,370961.31625726
160,0.0
175,565336.2453403532
190,0.0
205,284913.40226321297
220,0.0
241,1903266.749356607
256,480270.8118034591
271,0.0
829,9780001.610244353
2,3, 1, 3, 0,20, 0.00,60.00,Wednesday
17,16337926.67902615
29,252368.5332648852
108,2808271.1254794669
145,370961.31625726
160,0.0
175,289916.02325146328
190,2805521.211894657
205,273516.86617268456
220,0.0
241,2024109.08264909
256,510764.1966798692
271,0.0
829,10832434.80272896
2,3, 1, 3, 0,21, 0.00,60.00,Wednesday
17,6483959.252784366
29,209519.52997124717
108,2331462.0037226008
145,378235.06755642159
160,0.0
175,169117.68023001997
190,0.0
205,267818.59812742008
220,0.0
241,2144951.415941573
256,541257.5815562792
271,0.0
829,13244877.07138132
2,3, 1, 3, 0,22, 0.00,60.00,Wednesday
17,5783844.86418817
29,158078.74132085147
108,1759046.419378836
145,392782.5701547458
160,0.0
175,120798.34302144323
190,0.0
205,262120.3300821558
220,0.0
241,2084530.2492953318
256,526010.8891180742
271,0.0
829,15213398.757818534
2,3, 1, 3, 0,23, 0.00,60.00,Wednesday
17,6222924.970897916
29,136634.78396478998
108,1520425.3619911732
145,320045.05716312609
160,0.0
175,77310.93953372377
190,0.0
205,250723.79399162753
220,0.0
241,1782424.4160641244
256,449777.426927049
271,0.0
829,17559386.280415927
2,3, 1, 3, 0,24, 0.00,60.00,Wednesday
17,3691406.387578069
29,63480.3875582901
108,706388.1424039514
145,174570.03117988676
160,0.0
175,53151.2709294349
190,0.0
205,233628.98985583458
220,0.0
241,1510529.1661560375
256,381167.31095512627
271,0.0
829,19669603.709445079
2,4, 1, 4, 0, 1, 0.00,60.00,Thursday
17,2835847.5666671467
29,31520.721656648944
108,350751.86013675309
145,72737.51299161969
160,0.0
175,33823.53604600406
190,0.0
205,227930.72181057043
220,0.0
241,1208423.3329248299
256,304933.84876410107
271,0.0
829,21554837.65750298
2,4, 1, 4, 0, 2, 0.00,60.00,Thursday
17,3762661.1608706286
29,18912.432993989292
108,210451.11608205099
145,43642.507794971745
160,0.0
175,33823.53604600406
190,0.0
205,222232.45376530625
220,0.0
241,1117791.5829554678
256,282063.8101067935
271,0.0
829,24597253.478348353
2,4, 1, 4, 0, 3, 0.00,60.00,Thursday
17,2503866.6810611959
29,12608.288662659528
108,140300.74405470069
145,29095.005196647813
160,0.0
175,19327.734883430905
190,0.0
205,216534.18572004169
220,0.0
241,1117791.5829554678
256,282063.8101067935
271,0.0
829,25626528.751828154
2,4, 1, 4, 0, 4, 0.00,60.00,Thursday
17,2443813.052204093
29,12608.288662659528
108,140300.74405470069
145,14547.502598323936
160,0.0
175,19327.734883430905
190,0.0
205,210835.9176747775
220,0.0
241,1087580.999632347
256,274440.4638876909
271,0.0
829,25526587.219421388
2,4, 1, 4, 0, 5, 0.00,60.00,Thursday
17,3543406.0877159188
29,14017.579698740728
108,155982.85494556168
145,29095.005196647813
160,0.0
175,33823.53604600406
190,0.0
205,205137.64962951334
220,0.0
241,996949.2496629846
256,251570.42523038339
271,0.0
829,25706812.14054999
2,4, 1, 4, 0, 6, 0.00,60.00,Thursday
17,2809602.5209509029
29,38462.59422001201
108,427998.6548311974
145,43642.507794971745
160,0.0
175,53151.2709294349
190,0.0
205,205137.64962951334
220,0.0
241,1087580.999632347
256,274440.4638876909
271,0.0
829,25274293.030450204
2,4, 1, 4, 0, 7, 0.00,60.00,Thursday
17,3826939.347533213
29,90299.55374739846
108,1004822.6938274336
145,116380.02078659136
160,0.0
175,120798.34302144323
190,0.0
205,216534.18572004169
220,0.0
241,1299055.0828941924
256,327803.8874214086
271,0.0
829,23859527.500438766
2,4, 1, 4, 0, 8, 0.00,60.00,Thursday
17,5606307.216700459
29,114271.75744381984
108,1271577.215811016
145,232760.0415731827
160,0.0
175,202941.21627602424
190,0.0
205,227930.72181057043
220,0.0
241,1419897.4161866753
256,358297.2722978187
271,0.0
829,20939124.953065069
2,4, 1, 4, 0, 9, 0.00,60.00,Thursday
17,14976297.96775784
29,121438.7837423188
108,1351329.444621973
145,349140.06235977416
160,0.0
175,222268.95115945536
190,0.0
205,233628.98985583458
220,0.0
241,1027159.8329861055
256,259193.77144948589
271,0.0
829,18907572.9236674
2,4, 1, 4, 0,10, 0.00,60.00,Thursday
17,6236958.807426478
29,124830.57748974454
108,1389072.1707901357
145,494615.0883430129
160,0.0
175,231932.81860117054
190,0.0
205,233628.98985583458
220,0.0
241,694843.4164317773
256,175336.9630393581
271,0.0
829,14765403.55429786
2,4, 1, 4, 0,11, 0.00,60.00,Thursday
17,4937675.567758469
29,121436.52005279417
108,1351304.25505556
145,567352.6013346326
160,0.0
175,202941.21627602424
190,0.0
205,227930.72181057043
220,0.0
241,725053.9997548979
256,182960.30925846063
271,0.0
829,12332051.833200729
2,4, 1, 4, 0,12, 0.00,60.00,Thursday
17,8473158.573837029
29,116734.14550150292
108,1298977.8318571493
145,589173.8552321184
160,0.0
175,241596.68604288577
190,0.0
205,227930.72181057043
220,0.0
241,755264.5830780187
256,190583.65547756313
271,0.0
829,11472207.24996526
2,4, 1, 4, 0,13, 0.00,60.00,Thursday
17,3695970.838546342
29,113340.08806455229
108,1261209.916122571
145,538257.5961379845
160,0.0
175,275420.22208889006
190,0.0
205,239327.25790109879
220,0.0
241,725053.9997548979
256,182960.30925846063
271,0.0
829,9133864.63526194
2,4, 1, 4, 0,14, 0.00,60.00,Thursday
17,3706794.9984056537
29,112341.33688407114
108,1250096.1529865785
145,487341.3370438513
160,0.0
175,222268.95115945536
190,0.0
205,239327.25790109879
220,0.0
241,845896.3330473809
256,213453.69413487073
271,0.0
829,7901941.300209666
2,4, 1, 4, 0,15, 0.00,60.00,Thursday
17,4795639.91983261
29,114091.83433341766
108,1269575.0926888814
145,414603.8240522317
160,0.0
175,275420.22208889006
190,0.0
205,239327.25790109879
220,0.0
241,936528.0830167432
256,236323.73279217829
271,0.0
829,6534878.831538969
2,4, 1, 4, 0,16, 0.00,60.00,Thursday
17,4923647.511874413
29,124772.48411455617
108,1388425.7274875076
145,443698.82924887907
160,0.0
175,212605.08371773945
190,0.0
205,233628.98985583458
220,0.0
241,966738.6663398639
256,243947.07901128083
271,0.0
829,7219685.78000881
2,4, 1, 4, 0,17, 0.00,60.00,Thursday
17,4741518.510157465
29,153230.21491511088
108,1705093.6680979355
145,400056.32145390738
160,0.0
175,444537.90231891
190,0.0
205,250723.79399162753
220,0.0
241,1178212.7496017093
256,297310.5025449985
271,0.0
829,6701152.647233021
2,4, 1, 4, 0,18, 0.00,60.00,Thursday
17,7332639.081348233
29,203210.06438551093
108,2261252.418587706
145,392782.5701547458
160,0.0
175,724790.058128658
190,0.0
205,273516.86617268456
220,0.0
241,1601160.9161253998
256,404037.3496124338
271,0.0
829,6185869.600170438
2,4, 1, 4, 0,19, 0.00,60.00,Thursday
17,6926951.122456813
29,249271.51164091205
108,2773808.5231531264
145,370961.31625726
160,0.0
175,565336.2453403532
190,0.0
205,284913.40226321297
220,0.0
241,1903266.749356607
256,480270.8118034591
271,0.0
829,6031267.303525547
2,4, 1, 4, 0,20, 0.00,60.00,Thursday
17,9413681.233914732
29,252368.5332648852
108,2808271.1254794669
145,370961.31625726
160,0.0
175,289916.02325146328
190,0.0
205,273516.86617268456
220,0.0
241,2024109.08264909
256,510764.1966798692
271,0.0
829,5437594.5332686309
2,4, 1, 4, 0,21, 0.00,60.00,Thursday
17,6341972.2928238599
29,209519.52997124717
108,2331462.0037226008
145,378235.06755642159
160,0.0
175,169117.68023001997
190,0.0
205,267818.59812742008
220,0.0
241,2144951.415941573
256,541257.5815562792
271,0.0
829,6055967.681383862
2,4, 1, 4, 0,22, 0.00,60.00,Thursday
17,5610206.795515093
29,158078.74132085147
108,1759046.419378836
145,392782.5701547458
160,0.0
175,120798.34302144323
190,0.0
205,262120.3300821558
220,0.0
241,2084530.2492953318
256,526010.8891180742
271,0.0
829,6421969.300549279
2,4, 1, 4, 0,23, 0.00,60.00,Thursday
17,6072459.787523706
29,136634.78396478998
108,1520425.3619911732
145,320045.05716312609
160,0.0
175,77310.93953372377
190,0.0
205,250723.79399162753
220,0.0
241,1782424.4160641244
256,449777.426927049
271,0.0
829,7261675.405173806
2,4, 1, 4, 0,24, 0.00,60.00,Thursday
17,3250664.4855873475
29,63480.3875582901
108,706388.1424039514
145,174570.03117988676
160,0.0
175,53151.2709294349
190,0.0
205,233628.98985583458
220,0.0
241,1510529.1661560375
256,381167.31095512627
271,0.0
829,6468039.931276436
2,5, 1, 5, 0, 1, 0.00,60.00,Friday
17,3731093.4273780549
29,31520.721656648944
108,350751.86013675309
145,72737.51299161969
160,0.0
175,33823.53604600406
190,0.0
205,227930.72181057043
220,0.0
241,1208423.3329248299
256,304933.84876410107
271,0.0
829,8765684.931262436
2,5, 1, 5, 0, 2, 0.00,60.00,Friday
17,2068494.855122834
29,18912.432993989292
108,210451.11608205099
145,43642.507794971745
160,0.0
175,33823.53604600406
190,0.0
205,222232.45376530625
220,0.0
241,1117791.5829554678
256,282063.8101067935
271,0.0
829,7066912.287743764
2,5, 1, 5, 0, 3, 0.00,60.00,Friday
17,1955943.4149569609
29,12608.288662659528
108,140300.74405470069
145,29095.005196647813
160,0.0
175,19327.734883430905
190,0.0
205,216534.18572004169
220,0.0
241,1117791.5829554678
256,282063.8101067935
271,0.0
829,6998289.769664081
2,5, 1, 5, 0, 4, 0.00,60.00,Friday
17,2086955.658377924
29,12608.288662659528
108,140300.74405470069
145,14547.502598323936
160,0.0
175,19327.734883430905
190,0.0
205,210835.9176747775
220,0.0
241,1087580.999632347
256,274440.4638876909
271,0.0
829,7458621.893024212
2,5, 1, 5, 0, 5, 0.00,60.00,Friday
17,2011415.2664481444
29,14017.579698740728
108,155982.85494556168