Program Version,EnergyPlus, Version 9.2.0-921312fa1d, YMD=2020.03.10 07:41
1,5,Environment Title[],Latitude[deg],Longitude[deg],Time Zone[],Elevation[m]
2,8,Day of Simulation[],Month[],Day of Month[],DST Indicator[1=yes 0=no],Hour[],StartMinute[],EndMinute[],DayType
3,5,Cumulative Day of Simulation[],Month[],Day of Month[],DST Indicator[1=yes 0=no],DayType  ! When Daily Meters Requested
4,2,Cumulative Days of Simulation[],Month[]  ! When Monthly Meters Requested
5,1,Cumulative Days of Simulation[] ! When Run Period Meters Requested
6,1,Calendar Year of Simulation[] ! When Annual Meters Requested
16,11,Electricity:Facility [J] !RunPeriod [Value,Min,Month,Day,Hour,Minute,Max,Month,Day,Hour,Minute]
777,11,Gas:Facility [J] !RunPeriod [Value,Min,Month,Day,Hour,Minute,Max,Month,Day,Hour,Minute]
107,11,interior lighting:InteriorLights:Electricity [J] !RunPeriod [Value,Min,Month,Day,Hour,Minute,Max,Month,Day,Hour,Minute]
28,11,ExteriorLights:Electricity [J] !RunPeriod [Value,Min,Month,Day,Hour,Minute,Max,Month,Day,Hour,Minute]
234,11,mech vent house fan:InteriorEquipment:Electricity [J] !RunPeriod [Value,Min,Month,Day,Hour,Minute,Max,Month,Day,Hour,Minute]
294,11,whole house fan:InteriorEquipment:Electricity [J] !RunPeriod [Value,Min,Month,Day,Hour,Minute,Max,Month,Day,Hour,Minute]
204,11,fridge:InteriorEquipment:Electricity [J] !RunPeriod [Value,Min,Month,Day,Hour,Minute,Max,Month,Day,Hour,Minute]
189,11,dishwasher:InteriorEquipment:Electricity [J] !RunPeriod [Value,Min,Month,Day,Hour,Minute,Max,Month,Day,Hour,Minute]
159,11,clothes washer:InteriorEquipment:Electricity [J] !RunPeriod [Value,Min,Month,Day,Hour,Minute,Max,Month,Day,Hour,Minute]
144,11,clothes dryer:InteriorEquipment:Electricity [J] !RunPeriod [Value,Min,Month,Day,Hour,Minute,Max,Month,Day,Hour,Minute]
174,11,cooking range:InteriorEquipment:Electricity [J] !RunPeriod [Value,Min,Month,Day,Hour,Minute,Max,Month,Day,Hour,Minute]
279,11,misc tv:InteriorEquipment:Electricity [J] !RunPeriod [Value,Min,Month,Day,Hour,Minute,Max,Month,Day,Hour,Minute]
264,11,misc plug loads:InteriorEquipment:Electricity [J] !RunPeriod [Value,Min,Month,Day,Hour,Minute,Max,Month,Day,Hour,Minute]
634,11,Heating:DistrictHeating [J] !RunPeriod [Value,Min,Month,Day,Hour,Minute,Max,Month,Day,Hour,Minute]
671,11,Cooling:DistrictCooling [J] !RunPeriod [Value,Min,Month,Day,Hour,Minute,Max,Month,Day,Hour,Minute]
12,1,Electricity:Facility [J] !Hourly
773,1,Gas:Facility [J] !Hourly
103,1,interior lighting:InteriorLights:Electricity [J] !Hourly
24,1,ExteriorLights:Electricity [J] !Hourly
230,1,mech vent house fan:InteriorEquipment:Electricity [J] !Hourly
290,1,whole house fan:InteriorEquipment:Electricity [J] !Hourly
200,1,fridge:InteriorEquipment:Electricity [J] !Hourly
185,1,dishwasher:InteriorEquipment:Electricity [J] !Hourly
155,1,clothes washer:InteriorEquipment:Electricity [J] !Hourly
140,1,clothes dryer:InteriorEquipment:Electricity [J] !Hourly
170,1,cooking range:InteriorEquipment:Electricity [J] !Hourly
275,1,misc tv:InteriorEquipment:Electricity [J] !Hourly
260,1,misc plug loads:InteriorEquipment:Electricity [J] !Hourly
End of Data Dictionary
1,RUN PERIOD 1,  39.83,-104.65,  -7.00,1650.00
2,1, 1, 1, 0, 1, 0.00,60.00,Monday
12,2659268.6223822196
24,31520.721656648944
103,350751.86013675309
140,96538.02982053661
155,0.0
170,33823.53604600406
185,0.0
200,227930.72181057043
230,0.0
260,1208423.3329248299
275,304933.84876410107
290,0.0
773,11177594.47847212
2,1, 1, 1, 0, 2, 0.00,60.00,Monday
12,2400609.1703854568
24,18912.432993989292
103,210451.11608205099
140,57922.81789232189
155,0.0
170,33823.53604600406
185,0.0
200,222232.45376530625
230,0.0
260,1117791.5829554678
275,282063.8101067935
290,0.0
773,13760104.472443784
2,1, 1, 1, 0, 3, 0.00,60.00,Monday
12,2313318.8999787627
24,12608.288662659528
103,140300.74405470069
140,38615.211928214565
155,0.0
170,19327.734883430905
185,0.0
200,216534.18572004169
230,0.0
260,1117791.5829554678
275,282063.8101067935
290,0.0
773,15181985.621717655
2,1, 1, 1, 0, 4, 0.00,60.00,Monday
12,2272549.827972674
24,12608.288662659528
103,140300.74405470069
140,19307.60596410732
155,0.0
170,19327.734883430905
185,0.0
200,210835.9176747775
230,0.0
260,1087580.999632347
275,274440.4638876909
290,0.0
773,16276733.528110257
2,1, 1, 1, 0, 5, 0.00,60.00,Monday
12,2214427.0081180918
24,14017.579698740728
103,155982.85494556168
140,38615.211928214565
155,0.0
170,33823.53604600406
185,0.0
200,205137.64962951334
230,0.0
260,996949.2496629846
275,251570.42523038339
290,0.0
773,16781800.224850846
2,1, 1, 1, 0, 6, 0.00,60.00,Monday
12,2654902.5760645049
24,38462.59422001201
103,427998.6548311974
140,57922.81789232189
155,0.0
170,53151.2709294349
185,0.0
200,205137.64962951334
230,0.0
260,1087580.999632347
275,274440.4638876909
290,0.0
773,16378915.797068507
2,1, 1, 1, 0, 7, 0.00,60.00,Monday
12,3712337.99555392
24,90299.55374739846
103,1004822.6938274336
140,154460.8477128584
155,0.0
170,120798.34302144323
185,0.0
200,216534.18572004169
230,0.0
260,1299055.0828941924
275,327803.8874214086
290,0.0
773,15801316.590162237
2,1, 1, 1, 0, 8, 0.00,60.00,Monday
12,5537395.13287876
24,114271.75744381984
103,1271577.215811016
140,308921.6954257168
155,0.0
170,202941.21627602424
185,0.0
200,227930.72181057043
230,0.0
260,1419897.4161866753
275,358297.2722978187
290,0.0
773,14872930.084193668
2,1, 1, 1, 0, 9, 0.00,60.00,Monday
12,10115090.006588389
24,121438.7837423188
103,1351329.444621973
140,463382.54313857536
155,1371541.3564130692
170,222268.95115945536
185,0.0
200,233628.98985583458
230,0.0
260,1027159.8329861055
275,259193.77144948589
290,0.0
773,13194214.334592512
2,1, 1, 1, 0,10, 0.00,60.00,Monday
12,4993816.765106324
24,124830.57748974454
103,1389072.1707901357
140,656458.6027796477
155,0.0
170,231932.81860117054
185,0.0
200,233628.98985583458
230,0.0
260,694843.4164317773
275,175336.9630393581
290,0.0
773,8658117.770990415
2,1, 1, 1, 0,11, 0.00,60.00,Monday
12,3858789.2464021348
24,121436.52005279417
103,1351304.25505556
140,752996.6326001843
155,0.0
170,202941.21627602424
185,0.0
200,227930.72181057043
230,0.0
260,725053.9997548979
275,182960.30925846063
290,0.0
773,5662818.294967813
2,1, 1, 1, 0,12, 0.00,60.00,Monday
12,3874310.682862975
24,116734.14550150292
103,1298977.8318571493
140,781958.0415463452
155,0.0
170,241596.68604288577
185,0.0
200,227930.72181057043
230,0.0
260,755264.5830780187
275,190583.65547756313
290,0.0
773,4030890.7587059938
2,1, 1, 1, 0,13, 0.00,60.00,Monday
12,4978573.9071769
24,113340.08806455229
103,1261209.916122571
140,714381.4206719695
155,0.0
170,275420.22208889006
185,0.0
200,239327.25790109879
230,0.0
260,725053.9997548979
275,182960.30925846063
290,0.0
773,3798927.0030952428
2,1, 1, 1, 0,14, 0.00,60.00,Monday
12,3786648.9292199357
24,112341.33688407114
103,1250096.1529865785
140,646804.7997975946
155,0.0
170,222268.95115945536
185,0.0
200,239327.25790109879
230,0.0
260,845896.3330473809
275,213453.69413487073
290,0.0
773,3792573.2670778909
2,1, 1, 1, 0,15, 0.00,60.00,Monday
12,5039138.850675714
24,114091.83433341766
103,1269575.0926888814
140,550266.7699770579
155,0.0
170,275420.22208889006
185,0.0
200,239327.25790109879
230,0.0
260,936528.0830167432
275,236323.73279217829
290,0.0
773,2984333.4622520667
2,1, 1, 1, 0,16, 0.00,60.00,Monday
12,5487712.423929717
24,124772.48411455617
103,1388425.7274875076
140,588881.981905272
155,265474.2329129691
170,212605.08371773945
185,0.0
200,233628.98985583458
230,0.0
260,966738.6663398639
275,243947.07901128083
290,0.0
773,2919595.3855549755
2,1, 1, 1, 0,17, 0.00,60.00,Monday
12,4832883.879883622
24,153230.21491511088
103,1705093.6680979355
140,530959.1640129502
155,0.0
170,444537.90231891
185,0.0
200,250723.79399162753
230,0.0
260,1178212.7496017093
275,297310.5025449985
290,0.0
773,4603834.490841147
2,1, 1, 1, 0,18, 0.00,60.00,Monday
12,8771340.598325178
24,203210.06438551093
103,2261252.418587706
140,521305.36103089709
155,0.0
170,724790.058128658
185,0.0
200,273516.86617268456
230,0.0
260,1601160.9161253998
275,404037.3496124338
290,0.0
773,6503215.976272349
2,1, 1, 1, 0,19, 0.00,60.00,Monday
12,15078153.569485913
24,249271.51164091205
103,2773808.5231531264
140,492343.95208473617
155,0.0
170,565336.2453403532
185,0.0
200,284913.40226321297
230,0.0
260,1903266.749356607
275,480270.8118034591
290,0.0
773,8424328.099147272
2,1, 1, 1, 0,20, 0.00,60.00,Monday
12,8151360.891723288
24,252368.5332648852
103,2808271.1254794669
140,492343.95208473617
155,0.0
170,289916.02325146328
185,0.0
200,273516.86617268456
230,0.0
260,2024109.08264909
275,510764.1966798692
290,0.0
773,8871668.75490902
2,1, 1, 1, 0,21, 0.00,60.00,Monday
12,6532097.690309776
24,209519.52997124717
103,2331462.0037226008
140,501997.75506678936
155,0.0
170,169117.68023001997
185,0.0
200,267818.59812742008
230,0.0
260,2144951.415941573
275,541257.5815562792
290,0.0
773,9224600.896388699
2,1, 1, 1, 0,22, 0.00,60.00,Monday
12,6596558.182790318
24,158078.74132085147
103,1759046.419378836
140,521305.36103089709
155,0.0
170,120798.34302144323
185,0.0
200,262120.3300821558
230,0.0
260,2084530.2492953318
275,526010.8891180742
290,0.0
773,10278414.062224042
2,1, 1, 1, 0,23, 0.00,60.00,Monday
12,5444202.974751892
24,136634.78396478998
103,1520425.3619911732
140,424767.33121036048
155,0.0
170,77310.93953372377
185,0.0
200,250723.79399162753
230,0.0
260,1782424.4160641244
275,449777.426927049
290,0.0
773,11659877.423657505
2,1, 1, 1, 0,24, 0.00,60.00,Monday
12,3647750.609568755
24,63480.3875582901
103,706388.1424039514
140,231691.27156928724
155,0.0
170,53151.2709294349
185,0.0
200,233628.98985583458
230,0.0
260,1510529.1661560375
275,381167.31095512627
290,0.0
773,14271134.387952196
2,2, 1, 2, 0, 1, 0.00,60.00,Tuesday
12,2744140.376329626
24,31520.721656648944
103,350751.86013675309
140,96538.02982053661
155,0.0
170,33823.53604600406
185,0.0
200,227930.72181057043
230,0.0
260,1208423.3329248299
275,304933.84876410107
290,0.0
773,15387385.837413775
2,2, 1, 2, 0, 2, 0.00,60.00,Tuesday
12,2439065.452622494
24,18912.432993989292
103,210451.11608205099
140,57922.81789232189
155,0.0
170,33823.53604600406
185,0.0
200,222232.45376530625
230,0.0
260,1117791.5829554678
275,282063.8101067935
290,0.0
773,15667605.108742936
2,2, 1, 2, 0, 3, 0.00,60.00,Tuesday
12,2327807.563836745
24,12608.288662659528
103,140300.74405470069
140,38615.211928214565
155,0.0
170,19327.734883430905
185,0.0
200,216534.18572004169
230,0.0
260,1117791.5829554678
275,282063.8101067935
290,0.0
773,15900649.359358134
2,2, 1, 2, 0, 4, 0.00,60.00,Tuesday
12,2287845.305197851
24,12608.288662659528
103,140300.74405470069
140,19307.60596410732
155,0.0
170,19327.734883430905
185,0.0
200,210835.9176747775
230,0.0
260,1087580.999632347
275,274440.4638876909
290,0.0
773,17035416.65716804
2,2, 1, 2, 0, 5, 0.00,60.00,Tuesday
12,2196658.4878362568
24,14017.579698740728
103,155982.85494556168
140,38615.211928214565
155,0.0
170,33823.53604600406
185,0.0
200,205137.64962951334
230,0.0
260,996949.2496629846
275,251570.42523038339
290,0.0
773,15900449.720535811
2,2, 1, 2, 0, 6, 0.00,60.00,Tuesday
12,3781298.685902569
24,38462.59422001201
103,427998.6548311974
140,57922.81789232189
155,0.0
170,53151.2709294349
185,0.0
200,205137.64962951334
230,0.0
260,1087580.999632347
275,274440.4638876909
290,0.0
773,16043416.955003337
2,2, 1, 2, 0, 7, 0.00,60.00,Tuesday
12,3693982.042402116
24,90299.55374739846
103,1004822.6938274336
140,154460.8477128584
155,0.0
170,120798.34302144323
185,0.0
200,216534.18572004169
230,0.0
260,1299055.0828941924
275,327803.8874214086
290,0.0
773,14890828.360927733
2,2, 1, 2, 0, 8, 0.00,60.00,Tuesday
12,5531927.065776117
24,114271.75744381984
103,1271577.215811016
140,308921.6954257168
155,0.0
170,202941.21627602424
185,0.0
200,227930.72181057043
230,0.0
260,1419897.4161866753
275,358297.2722978187
290,0.0
773,13152027.476337603
2,2, 1, 2, 0, 9, 0.00,60.00,Tuesday
12,4099006.026856731
24,121438.7837423188
103,1351329.444621973
140,463382.54313857536
155,0.0
170,222268.95115945536
185,0.0
200,233628.98985583458
230,0.0
260,1027159.8329861055
275,259193.77144948589
290,0.0
773,11934375.946873382
2,2, 1, 2, 0,10, 0.00,60.00,Tuesday
12,5095253.492931526
24,124830.57748974454
103,1389072.1707901357
140,656458.6027796477
155,0.0
170,231932.81860117054
185,0.0
200,233628.98985583458
230,0.0
260,694843.4164317773
275,175336.9630393581
290,0.0
773,7904949.103669876
2,2, 1, 2, 0,11, 0.00,60.00,Tuesday
12,5039979.579829259
24,121436.52005279417
103,1351304.25505556
140,752996.6326001843
155,0.0
170,202941.21627602424
185,0.0
200,227930.72181057043
230,0.0
260,725053.9997548979
275,182960.30925846063
290,0.0
773,4289425.915269515
2,2, 1, 2, 0,12, 0.00,60.00,Tuesday
12,4975117.261065201
24,116734.14550150292
103,1298977.8318571493
140,781958.0415463452
155,0.0
170,241596.68604288577
185,0.0
200,227930.72181057043
230,0.0
260,755264.5830780187
275,190583.65547756313
290,0.0
773,2428217.600791391
2,2, 1, 2, 0,13, 0.00,60.00,Tuesday
12,3721987.9048051207
24,113340.08806455229
103,1261209.916122571
140,714381.4206719695
155,0.0
170,275420.22208889006
185,0.0
200,239327.25790109879
230,0.0
260,725053.9997548979
275,182960.30925846063
290,0.0
773,1502671.0562778796
2,2, 1, 2, 0,14, 0.00,60.00,Tuesday
12,3735845.937226698
24,112341.33688407114
103,1250096.1529865785
140,646804.7997975946
155,0.0
170,222268.95115945536
185,0.0
200,239327.25790109879
230,0.0
260,845896.3330473809
275,213453.69413487073
290,0.0
773,1272653.6618574367
2,2, 1, 2, 0,15, 0.00,60.00,Tuesday
12,3621532.992798267
24,114091.83433341766
103,1269575.0926888814
140,550266.7699770579
155,0.0
170,275420.22208889006
185,0.0
200,239327.25790109879
230,0.0
260,936528.0830167432
275,236323.73279217829
290,0.0
773,0.0
2,2, 1, 2, 0,16, 0.00,60.00,Tuesday
12,5128800.088609353
24,124772.48411455617
103,1388425.7274875076
140,588881.981905272
155,0.0
170,212605.08371773945
185,0.0
200,233628.98985583458
230,0.0
260,966738.6663398639
275,243947.07901128083
290,0.0
773,582636.6957968103
2,2, 1, 2, 0,17, 0.00,60.00,Tuesday
12,4770487.587386001
24,153230.21491511088
103,1705093.6680979355
140,530959.1640129502
155,0.0
170,444537.90231891
185,0.0
200,250723.79399162753
230,0.0
260,1178212.7496017093
275,297310.5025449985
290,0.0
773,1508866.368122017
2,2, 1, 2, 0,18, 0.00,60.00,Tuesday
12,7383796.145010494
24,203210.06438551093
103,2261252.418587706
140,521305.36103089709
155,0.0
170,724790.058128658
185,0.0
200,273516.86617268456
230,0.0
260,1601160.9161253998
275,404037.3496124338
290,0.0
773,2439941.884098815
2,2, 1, 2, 0,19, 0.00,60.00,Tuesday
12,7003897.69794417
24,249271.51164091205
103,2773808.5231531264
140,492343.95208473617
155,0.0
170,565336.2453403532
185,0.0
200,284913.40226321297
230,0.0
260,1903266.749356607
275,480270.8118034591
290,0.0
773,3704584.592588664
2,2, 1, 2, 0,20, 0.00,60.00,Tuesday
12,6925884.038105253
24,252368.5332648852
103,2808271.1254794669
140,492343.95208473617
155,0.0
170,289916.02325146328
185,0.0
200,273516.86617268456
230,0.0
260,2024109.08264909
275,510764.1966798692
290,0.0
773,4692045.039892012
2,2, 1, 2, 0,21, 0.00,60.00,Tuesday
12,6472169.830840613
24,209519.52997124717
103,2331462.0037226008
140,501997.75506678936
155,0.0
170,169117.68023001997
185,0.0
200,267818.59812742008
230,0.0
260,2144951.415941573
275,541257.5815562792
290,0.0
773,6252071.483252177
2,2, 1, 2, 0,22, 0.00,60.00,Tuesday
12,5743835.960560534
24,158078.74132085147
103,1759046.419378836
140,521305.36103089709
155,0.0
170,120798.34302144323
185,0.0
200,262120.3300821558
230,0.0
260,2084530.2492953318
275,526010.8891180742
290,0.0
773,6544739.985653915
2,2, 1, 2, 0,23, 0.00,60.00,Tuesday
12,4956527.7754342169
24,136634.78396478998
103,1520425.3619911732
140,424767.33121036048
155,0.0
170,77310.93953372377
185,0.0
200,250723.79399162753
230,0.0
260,1782424.4160641244
275,449777.426927049
290,0.0
773,6669641.990323741
2,2, 1, 2, 0,24, 0.00,60.00,Tuesday
12,9662960.777034719
24,63480.3875582901
103,706388.1424039514
140,231691.27156928724
155,0.0
170,53151.2709294349
185,0.0
200,233628.98985583458
230,0.0
260,1510529.1661560375
275,381167.31095512627
290,0.0
773,8589989.75130512
2,3, 1, 3, 0, 1, 0.00,60.00,Wednesday
12,2633265.038573607
24,31520.721656648944
103,350751.86013675309
140,96538.02982053661
155,0.0
170,33823.53604600406
185,0.0
200,227930.72181057043
230,0.0
260,1208423.3329248299
275,304933.84876410107
290,0.0
773,9887770.039509189
2,3, 1, 3, 0, 2, 0.00,60.00,Wednesday
12,2345973.0697991915
24,18912.432993989292
103,210451.11608205099
140,57922.81789232189
155,0.0
170,33823.53604600406
185,0.0
200,222232.45376530625
230,0.0
260,1117791.5829554678
275,282063.8101067935
290,0.0
773,11050055.799750425
2,3, 1, 3, 0, 3, 0.00,60.00,Wednesday
12,2247301.379886541
24,12608.288662659528
103,140300.74405470069
140,38615.211928214565
155,0.0
170,19327.734883430905
185,0.0
200,216534.18572004169
230,0.0
260,1117791.5829554678
275,282063.8101067935
290,0.0
773,11907398.109419823
2,3, 1, 3, 0, 4, 0.00,60.00,Wednesday
12,2204508.4740782498
24,12608.288662659528
103,140300.74405470069
140,19307.60596410732
155,0.0
170,19327.734883430905
185,0.0
200,210835.9176747775
230,0.0
260,1087580.999632347
275,274440.4638876909
290,0.0
773,12901760.226003895
2,3, 1, 3, 0, 5, 0.00,60.00,Wednesday
12,3282745.4199052166
24,14017.579698740728
103,155982.85494556168
140,38615.211928214565
155,0.0
170,33823.53604600406
185,0.0
200,205137.64962951334
230,0.0
260,996949.2496629846
275,251570.42523038339
290,0.0
773,13567131.63922022
2,3, 1, 3, 0, 6, 0.00,60.00,Wednesday
12,2601805.2697348438
24,38462.59422001201
103,427998.6548311974
140,57922.81789232189
155,0.0
170,53151.2709294349
185,0.0
200,205137.64962951334
230,0.0
260,1087580.999632347
275,274440.4638876909
290,0.0
773,13745194.081971137
2,3, 1, 3, 0, 7, 0.00,60.00,Wednesday
12,3653594.639549256
24,90299.55374739846
103,1004822.6938274336
140,154460.8477128584
155,0.0
170,120798.34302144323
185,0.0
200,216534.18572004169
230,0.0
260,1299055.0828941924
275,327803.8874214086
290,0.0
773,12887540.675304683
2,3, 1, 3, 0, 8, 0.00,60.00,Wednesday
12,4337846.237762054
24,114271.75744381984
103,1271577.215811016
140,308921.6954257168
155,0.0
170,202941.21627602424
185,0.0
200,227930.72181057043
230,0.0
260,1419897.4161866753
275,358297.2722978187
290,0.0
773,12599299.549493107
2,3, 1, 3, 0, 9, 0.00,60.00,Wednesday
12,4048084.476111113
24,121438.7837423188
103,1351329.444621973
140,463382.54313857536
155,0.0
170,222268.95115945536
185,0.0
200,233628.98985583458
230,0.0
260,1027159.8329861055
275,259193.77144948589
290,0.0
773,9408575.614696289
2,3, 1, 3, 0,10, 0.00,60.00,Wednesday
12,17614630.774646854
24,124830.57748974454
103,1389072.1707901357
140,656458.6027796477
155,0.0
170,231932.81860117054
185,0.0
200,233628.98985583458
230,0.0
260,694843.4164317773
275,175336.9630393581
290,0.0
773,7883939.954712256
2,3, 1, 3, 0,11, 0.00,60.00,Wednesday
12,12673580.939712352
24,121436.52005279417
103,1351304.25505556
140,752996.6326001843
155,0.0
170,202941.21627602424
185,0.0
200,227930.72181057043
230,0.0
260,725053.9997548979
275,182960.30925846063
290,0.0
773,5031545.887337638
2,3, 1, 3, 0,12, 0.00,60.00,Wednesday
12,5027234.886870099
24,116734.14550150292
103,1298977.8318571493
140,781958.0415463452
155,0.0
170,241596.68604288577
185,0.0
200,227930.72181057043
230,0.0
260,755264.5830780187
275,190583.65547756313
290,0.0
773,3330212.2454690949
2,3, 1, 3, 0,13, 0.00,60.00,Wednesday
12,3758204.0315427614
24,113340.08806455229
103,1261209.916122571
140,714381.4206719695
155,0.0
170,275420.22208889006
185,0.0
200,239327.25790109879
230,0.0
260,725053.9997548979
275,182960.30925846063
290,0.0
773,3299055.958243408
2,3, 1, 3, 0,14, 0.00,60.00,Wednesday
12,3792228.2853584226
24,112341.33688407114
103,1250096.1529865785
140,646804.7997975946
155,0.0
170,222268.95115945536
185,0.0
200,239327.25790109879
230,0.0
260,845896.3330473809
275,213453.69413487073
290,0.0
773,4069319.3476975306
2,3, 1, 3, 0,15, 0.00,60.00,Wednesday
12,3864958.6064131336
24,114091.83433341766
103,1269575.0926888814
140,550266.7699770579
155,0.0
170,275420.22208889006
185,0.0
200,239327.25790109879
230,0.0
260,936528.0830167432
275,236323.73279217829
290,0.0
773,3146024.2979884597
2,3, 1, 3, 0,16, 0.00,60.00,Wednesday
12,5173936.439415148
24,124772.48411455617
103,1388425.7274875076
140,588881.981905272
155,0.0
170,212605.08371773945
185,0.0
200,233628.98985583458
230,0.0
260,966738.6663398639
275,243947.07901128083
290,0.0
773,5050502.363902188
2,3, 1, 3, 0,17, 0.00,60.00,Wednesday
12,4879243.042560605
24,153230.21491511088
103,1705093.6680979355
140,530959.1640129502
155,0.0
170,444537.90231891
185,0.0
200,250723.79399162753
230,0.0
260,1178212.7496017093
275,297310.5025449985
290,0.0
773,6903332.184340843
2,3, 1, 3, 0,18, 0.00,60.00,Wednesday
12,6331990.508554886
24,203210.06438551093
103,2261252.418587706
140,521305.36103089709
155,0.0
170,724790.058128658
185,0.0
200,273516.86617268456
230,0.0
260,1601160.9161253998
275,404037.3496124338
290,0.0
773,8071078.848826616
2,3, 1, 3, 0,19, 0.00,60.00,Wednesday
12,8296085.172854032
24,249271.51164091205
103,2773808.5231531264
140,492343.95208473617
155,0.0
170,565336.2453403532
185,0.0
200,284913.40226321297
230,0.0
260,1903266.749356607
275,480270.8118034591
290,0.0
773,8149369.966758242
2,3, 1, 3, 0,20, 0.00,60.00,Wednesday
12,17271459.73862843
24,252368.5332648852
103,2808271.1254794669
140,492343.95208473617
155,0.0
170,289916.02325146328
185,3653599.3356510715
200,273516.86617268456
230,0.0
260,2024109.08264909
275,510764.1966798692
290,0.0
773,8802293.893566458
2,3, 1, 3, 0,21, 0.00,60.00,Wednesday
12,6571314.427160324
24,209519.52997124717
103,2331462.0037226008
140,501997.75506678936
155,0.0
170,169117.68023001997
185,0.0
200,267818.59812742008
230,0.0
260,2144951.415941573
275,541257.5815562792
290,0.0
773,11169821.446698416
2,3, 1, 3, 0,22, 0.00,60.00,Wednesday
12,5874069.028810375
24,158078.74132085147
103,1759046.419378836
140,521305.36103089709
155,0.0
170,120798.34302144323
185,0.0
200,262120.3300821558
230,0.0
260,2084530.2492953318
275,526010.8891180742
290,0.0
773,13004533.967364068
2,3, 1, 3, 0,23, 0.00,60.00,Wednesday
12,6286207.203680482
24,136634.78396478998
103,1520425.3619911732
140,424767.33121036048
155,0.0
170,77310.93953372377
185,0.0
200,250723.79399162753
230,0.0
260,1782424.4160641244
275,449777.426927049
290,0.0
773,15147615.48352908
2,3, 1, 3, 0,24, 0.00,60.00,Wednesday
12,3705732.885920685
24,63480.3875582901
103,706388.1424039514
140,231691.27156928724
155,0.0
170,53151.2709294349
185,0.0
200,233628.98985583458
230,0.0
260,1510529.1661560375
275,381167.31095512627
290,0.0
773,17147159.385731549
2,4, 1, 4, 0, 1, 0.00,60.00,Thursday
12,2814657.8858595357
24,31520.721656648944
103,350751.86013675309
140,96538.02982053661
155,0.0
170,33823.53604600406
185,0.0
200,227930.72181057043
230,0.0
260,1208423.3329248299
275,304933.84876410107
290,0.0
773,18885180.904275035
2,4, 1, 4, 0, 2, 0.00,60.00,Thursday
12,3725999.424786428
24,18912.432993989292
103,210451.11608205099
140,57922.81789232189
155,0.0
170,33823.53604600406
185,0.0
200,222232.45376530625
230,0.0
260,1117791.5829554678
275,282063.8101067935
290,0.0
773,21573573.158614536
2,4, 1, 4, 0, 3, 0.00,60.00,Thursday
12,2462791.7886856684
24,12608.288662659528
103,140300.74405470069
140,38615.211928214565
155,0.0
170,19327.734883430905
185,0.0
200,216534.18572004169
230,0.0
260,1117791.5829554678
275,282063.8101067935
290,0.0
773,22596109.23773622
2,4, 1, 4, 0, 4, 0.00,60.00,Thursday
12,2401613.544156654
24,12608.288662659528
103,140300.74405470069
140,19307.60596410732
155,0.0
170,19327.734883430905
185,0.0
200,210835.9176747775
230,0.0
260,1087580.999632347
275,274440.4638876909
290,0.0
773,22678525.548113899
2,4, 1, 4, 0, 5, 0.00,60.00,Thursday
12,3506988.7316208819
24,14017.579698740728
103,155982.85494556168
140,38615.211928214565
155,0.0
170,33823.53604600406
185,0.0
200,205137.64962951334
230,0.0
260,996949.2496629846
275,251570.42523038339
290,0.0
773,22905355.407315349
2,4, 1, 4, 0, 6, 0.00,60.00,Thursday
12,2780092.5828790559
24,38462.59422001201
103,427998.6548311974
140,57922.81789232189
155,0.0
170,53151.2709294349
185,0.0
200,205137.64962951334
230,0.0
260,1087580.999632347
275,274440.4638876909
290,0.0
773,22588564.87820254
2,4, 1, 4, 0, 7, 0.00,60.00,Thursday
12,3824128.366974647
24,90299.55374739846
103,1004822.6938274336
140,154460.8477128584
155,0.0
170,120798.34302144323
185,0.0
200,216534.18572004169
230,0.0
260,1299055.0828941924
275,327803.8874214086
290,0.0
773,21346319.70051964
2,4, 1, 4, 0, 8, 0.00,60.00,Thursday
12,5645593.009750103
24,114271.75744381984
103,1271577.215811016
140,308921.6954257168
155,0.0
170,202941.21627602424
185,0.0
200,227930.72181057043
230,0.0
260,1419897.4161866753
275,358297.2722978187
290,0.0
773,18684803.832421695
2,4, 1, 4, 0, 9, 0.00,60.00,Thursday
12,14902824.22669297
24,121438.7837423188
103,1351329.444621973
140,463382.54313857536
155,0.0
170,222268.95115945536
185,0.0
200,233628.98985583458
230,0.0
260,1027159.8329861055
275,259193.77144948589
290,0.0
773,16997227.94011275
2,4, 1, 4, 0,10, 0.00,60.00,Thursday
12,6454401.049911033
24,124830.57748974454
103,1389072.1707901357
140,656458.6027796477
155,0.0
170,231932.81860117054
185,0.0
200,233628.98985583458
230,0.0
260,694843.4164317773
275,175336.9630393581
290,0.0
773,13413701.828981245
2,4, 1, 4, 0,11, 0.00,60.00,Thursday
12,5109501.76411323
24,121436.52005279417
103,1351304.25505556
140,752996.6326001843
155,0.0
170,202941.21627602424
185,0.0
200,227930.72181057043
230,0.0
260,725053.9997548979
275,182960.30925846063
290,0.0
773,11396368.989726292
2,4, 1, 4, 0,12, 0.00,60.00,Thursday
12,8653198.467636593
24,116734.14550150292
103,1298977.8318571493
140,781958.0415463452
155,0.0
170,241596.68604288577
185,0.0
200,227930.72181057043
230,0.0
260,755264.5830780187
275,190583.65547756313
290,0.0
773,10611795.800986475
2,4, 1, 4, 0,13, 0.00,60.00,Thursday
12,3865648.5440326815
24,113340.08806455229
103,1261209.916122571
140,714381.4206719695
155,0.0
170,275420.22208889006
185,0.0
200,239327.25790109879
230,0.0
260,725053.9997548979
275,182960.30925846063
290,0.0
773,8628496.663876292
2,4, 1, 4, 0,14, 0.00,60.00,Thursday
12,3862167.157008055
24,112341.33688407114
103,1250096.1529865785
140,646804.7997975946
155,0.0
170,222268.95115945536
185,0.0
200,239327.25790109879
230,0.0
260,845896.3330473809
275,213453.69413487073
290,0.0
773,7538412.936916932
2,4, 1, 4, 0,15, 0.00,60.00,Thursday
12,4929260.734255817
24,114091.83433341766
103,1269575.0926888814
140,550266.7699770579
155,0.0
170,275420.22208889006
185,0.0
200,239327.25790109879
230,0.0
260,936528.0830167432
275,236323.73279217829
290,0.0
773,6300994.0821593
2,4, 1, 4, 0,16, 0.00,60.00,Thursday
12,5064757.735536072
24,124772.48411455617
103,1388425.7274875076
140,588881.981905272
155,0.0
170,212605.08371773945
185,0.0
200,233628.98985583458
230,0.0
260,966738.6663398639
275,243947.07901128083
290,0.0
773,6870946.514932822
2,4, 1, 4, 0,17, 0.00,60.00,Thursday
12,4866674.631365477
24,153230.21491511088
103,1705093.6680979355
140,530959.1640129502
155,0.0
170,444537.90231891
185,0.0
200,250723.79399162753
230,0.0
260,1178212.7496017093
275,297310.5025449985
290,0.0
773,6279916.426046685
2,4, 1, 4, 0,18, 0.00,60.00,Thursday
12,7455150.10781985
24,203210.06438551093
103,2261252.418587706
140,521305.36103089709
155,0.0
170,724790.058128658
185,0.0
200,273516.86617268456
230,0.0
260,1601160.9161253998
275,404037.3496124338
290,0.0
773,5761881.120016562
2,4, 1, 4, 0,19, 0.00,60.00,Thursday
12,7039889.731590445
24,249271.51164091205
103,2773808.5231531264
140,492343.95208473617
155,0.0
170,565336.2453403532
185,0.0
200,284913.40226321297
230,0.0
260,1903266.749356607
275,480270.8118034591
290,0.0
773,5489854.074926955
2,4, 1, 4, 0,20, 0.00,60.00,Thursday
12,9527920.577322239
24,252368.5332648852
103,2808271.1254794669
140,492343.95208473617
155,0.0
170,289916.02325146328
185,0.0
200,273516.86617268456
230,0.0
260,2024109.08264909
275,510764.1966798692
290,0.0
773,4973535.0760674229
2,4, 1, 4, 0,21, 0.00,60.00,Thursday
12,6456427.177755939
24,209519.52997124717
103,2331462.0037226008
140,501997.75506678936
155,0.0
170,169117.68023001997
185,0.0
200,267818.59812742008
230,0.0
260,2144951.415941573
275,541257.5815562792
290,0.0
773,5471207.628785987
2,4, 1, 4, 0,22, 0.00,60.00,Thursday
12,5729024.807567601
24,158078.74132085147
103,1759046.419378836
140,521305.36103089709
155,0.0
170,120798.34302144323
185,0.0
200,262120.3300821558
230,0.0
260,2084530.2492953318
275,526010.8891180742
290,0.0
773,5810080.207982172
2,4, 1, 4, 0,23, 0.00,60.00,Thursday
12,6166691.373336646
24,136634.78396478998
103,1520425.3619911732
140,424767.33121036048
155,0.0
170,77310.93953372377
185,0.0
200,250723.79399162753
230,0.0
260,1782424.4160641244
275,449777.426927049
290,0.0
773,6594299.213883944
2,4, 1, 4, 0,24, 0.00,60.00,Thursday
12,3302612.182122726
24,63480.3875582901
103,706388.1424039514
140,231691.27156928724
155,0.0
170,53151.2709294349
185,0.0
200,233628.98985583458
230,0.0
260,1510529.1661560375
275,381167.31095512627
290,0.0
773,6079971.927443693
2,5, 1, 5, 0, 1, 0.00,60.00,Friday
12,3744419.2102717577
24,31520.721656648944
103,350751.86013675309
140,96538.02982053661
155,0.0
170,33823.53604600406
185,0.0
200,227930.72181057043
230,0.0
260,1208423.3329248299
275,304933.84876410107
290,0.0
773,8068134.36153276
2,5, 1, 5, 0, 2, 0.00,60.00,Friday
12,2078572.1824667399
24,18912.432993989292
103,210451.11608205099
140,57922.81789232189
155,0.0
170,33823.53604600406
185,0.0
200,222232.45376530625
230,0.0
260,1117791.5829554678
275,282063.8101067935
290,0.0
773,6714814.884569211
2,5, 1, 5, 0, 3, 0.00,60.00,Friday
12,1961258.1000121518
24,12608.288662659528
103,140300.74405470069
140,38615.211928214565
155,0.0
170,19327.734883430905
185,0.0
200,216534.18572004169
230,0.0
260,1117791.5829554678
275,282063.8101067935
290,0.0
773,6647461.057032815
2,5, 1, 5, 0, 4, 0.00,60.00,Friday
12,2086193.5208638085
24,12608.288662659528
103,140300.74405470069
140,19307.60596410732
155,0.0
170,19327.734883430905
185,0.0