Program Version,EnergyPlus, Version 9.2.0-921312fa1d, YMD=2019.10.18 18:59
1,5,Environment Title[],Latitude[deg],Longitude[deg],Time Zone[],Elevation[m]
2,8,Day of Simulation[],Month[],Day of Month[],DST Indicator[1=yes 0=no],Hour[],StartMinute[],EndMinute[],DayType
3,5,Cumulative Day of Simulation[],Month[],Day of Month[],DST Indicator[1=yes 0=no],DayType  ! When Daily Meters Requested
4,2,Cumulative Days of Simulation[],Month[]  ! When Monthly Meters Requested
5,1,Cumulative Days of Simulation[] ! When Run Period Meters Requested
6,1,Calendar Year of Simulation[] ! When Annual Meters Requested
12,1,Electricity:Facility [J] !Hourly
574,1,Gas:Facility [J] !Hourly
End of Data Dictionary
1,RUN PERIOD 1,  39.83,-104.65,  -7.00,1650.00
2,1, 1, 1, 0, 1, 0.00,60.00,Monday
12,2479725.8490966137
574,1694089.7338074602
2,1, 1, 1, 0, 2, 0.00,60.00,Monday
12,2305232.402160749
574,6732695.749674098
2,1, 1, 1, 0, 3, 0.00,60.00,Monday
12,2206850.8892288666
574,7382709.153146362
2,1, 1, 1, 0, 4, 0.00,60.00,Monday
12,2184615.6608412649
574,8884501.51598255
2,1, 1, 1, 0, 5, 0.00,60.00,Monday
12,2132494.2154856
574,9483072.256878939
2,1, 1, 1, 0, 6, 0.00,60.00,Monday
12,2570933.3717964955
574,9107341.454943097
2,1, 1, 1, 0, 7, 0.00,60.00,Monday
12,3625664.6840909637
574,8576638.578084236
2,1, 1, 1, 0, 8, 0.00,60.00,Monday
12,5455088.080636039
574,7807289.559554652
2,1, 1, 1, 0, 9, 0.00,60.00,Monday
12,10445397.135664303
574,6812521.050060141
2,1, 1, 1, 0,10, 0.00,60.00,Monday
12,3789185.675920279
574,3812574.4541100047
2,1, 1, 1, 0,11, 0.00,60.00,Monday
12,3794014.7779074439
574,1826769.7953329266
2,1, 1, 1, 0,12, 0.00,60.00,Monday
12,4970033.212272759
574,1034825.103963587
2,1, 1, 1, 0,13, 0.00,60.00,Monday
12,4961670.728061971
574,1459409.4457426628
2,1, 1, 1, 0,14, 0.00,60.00,Monday
12,3759391.9446893276
574,1819827.4024099683
2,1, 1, 1, 0,15, 0.00,60.00,Monday
12,5030904.457475547
574,1473392.4681305744
2,1, 1, 1, 0,16, 0.00,60.00,Monday
12,5496669.605347492
574,1621519.6428207264
2,1, 1, 1, 0,17, 0.00,60.00,Monday
12,4831538.461483861
574,3383107.6106569969
2,1, 1, 1, 0,18, 0.00,60.00,Monday
12,7571514.830185497
574,5142366.69346869
2,1, 1, 1, 0,19, 0.00,60.00,Monday
12,16736138.917928294
574,6487543.679980218
2,1, 1, 1, 0,20, 0.00,60.00,Monday
12,7006763.5115404319
574,6490034.915250919
2,1, 1, 1, 0,21, 0.00,60.00,Monday
12,6519933.557461229
574,6428463.22103108
2,1, 1, 1, 0,22, 0.00,60.00,Monday
12,6990305.508571178
574,7071555.283532121
2,1, 1, 1, 0,23, 0.00,60.00,Monday
12,5040367.60815798
574,8074129.81336827
2,1, 1, 1, 0,24, 0.00,60.00,Monday
12,3639468.1848503078
574,10335000.657811651
2,2, 1, 2, 0, 1, 0.00,60.00,Tuesday
12,2735580.9148295877
574,11157091.92404997
2,2, 1, 2, 0, 2, 0.00,60.00,Tuesday
12,2426014.3718580615
574,11199912.533180498
2,2, 1, 2, 0, 3, 0.00,60.00,Tuesday
12,2311796.269157074
574,11264197.124750251
2,2, 1, 2, 0, 4, 0.00,60.00,Tuesday
12,3409611.1601672966
574,12220534.855697923
2,2, 1, 2, 0, 5, 0.00,60.00,Tuesday
12,2173619.3263554179
574,11004117.044951296
2,2, 1, 2, 0, 6, 0.00,60.00,Tuesday
12,2624121.131398759
574,11074532.857499123
2,2, 1, 2, 0, 7, 0.00,60.00,Tuesday
12,3662355.591258407
574,9933680.831255289
2,2, 1, 2, 0, 8, 0.00,60.00,Tuesday
12,5508996.671521754
574,8447122.954327502
2,2, 1, 2, 0, 9, 0.00,60.00,Tuesday
12,4066984.251018761
574,7714567.984994377
2,2, 1, 2, 0,10, 0.00,60.00,Tuesday
12,5097746.811939833
574,4801272.554512058
2,2, 1, 2, 0,11, 0.00,60.00,Tuesday
12,5542980.061377682
574,2191469.361305959
2,2, 1, 2, 0,12, 0.00,60.00,Tuesday
12,4488704.046507848
574,1191474.8219774233
2,2, 1, 2, 0,13, 0.00,60.00,Tuesday
12,3711664.5384724808
574,738655.2538463257
2,2, 1, 2, 0,14, 0.00,60.00,Tuesday
12,3734334.9754726246
574,893075.556011249
2,2, 1, 2, 0,15, 0.00,60.00,Tuesday
12,3621532.992798267
574,0.0
2,2, 1, 2, 0,16, 0.00,60.00,Tuesday
12,5150094.763058346
574,762408.0965110369
2,2, 1, 2, 0,17, 0.00,60.00,Tuesday
12,4785877.269918725
574,1694292.2864338423
2,2, 1, 2, 0,18, 0.00,60.00,Tuesday
12,7405944.0901879719
574,2295561.839611785
2,2, 1, 2, 0,19, 0.00,60.00,Tuesday
12,7020859.740506007
574,3389693.9984058316
2,2, 1, 2, 0,20, 0.00,60.00,Tuesday
12,6940948.086981503
574,4055799.3257829139
2,2, 1, 2, 0,21, 0.00,60.00,Tuesday
12,6488739.168947192
574,5274714.062358211
2,2, 1, 2, 0,22, 0.00,60.00,Tuesday
12,5752935.504884302
574,5216667.351485322
2,2, 1, 2, 0,23, 0.00,60.00,Tuesday
12,4958635.349431936
574,5051197.509400397
2,2, 1, 2, 0,24, 0.00,60.00,Tuesday
12,9291550.75205332
574,6620379.284020082
2,3, 1, 3, 0, 1, 0.00,60.00,Wednesday
12,3259837.050581187
574,7556526.616940437
2,3, 1, 3, 0, 2, 0.00,60.00,Wednesday
12,2350601.7668790516
574,8410717.626900822
2,3, 1, 3, 0, 3, 0.00,60.00,Wednesday
12,2250601.9772305155
574,9000877.784668357
2,3, 1, 3, 0, 4, 0.00,60.00,Wednesday
12,2208058.5604121766
574,9751555.718523529
2,3, 1, 3, 0, 5, 0.00,60.00,Wednesday
12,2152397.590995297
574,10219214.359447457
2,3, 1, 3, 0, 6, 0.00,60.00,Wednesday
12,3737297.5836522046
574,10275293.179764174
2,3, 1, 3, 0, 7, 0.00,60.00,Wednesday
12,3646860.6659952045
574,9360588.751630955
2,3, 1, 3, 0, 8, 0.00,60.00,Wednesday
12,4330030.698192384
574,9105657.941840239
2,3, 1, 3, 0, 9, 0.00,60.00,Wednesday
12,4031863.1315621386
574,6415585.573254085
2,3, 1, 3, 0,10, 0.00,60.00,Wednesday
12,16517871.163216355
574,5603957.529353109
2,3, 1, 3, 0,11, 0.00,60.00,Wednesday
12,14280661.577221236
574,3576075.346567244
2,3, 1, 3, 0,12, 0.00,60.00,Wednesday
12,4191970.2009016985
574,2596594.3726569886
2,3, 1, 3, 0,13, 0.00,60.00,Wednesday
12,3777412.2793177377
574,3170387.5075727368
2,3, 1, 3, 0,14, 0.00,60.00,Wednesday
12,3828889.764857057
574,4390259.309162506
2,3, 1, 3, 0,15, 0.00,60.00,Wednesday
12,5041505.483142138
574,3844109.6366032597
2,3, 1, 3, 0,16, 0.00,60.00,Wednesday
12,4092943.9001250385
574,5693736.577932453
2,3, 1, 3, 0,17, 0.00,60.00,Wednesday
12,4931015.523422892
574,7062345.511658321
2,3, 1, 3, 0,18, 0.00,60.00,Wednesday
12,6384852.060782816
574,7973360.997806396
2,3, 1, 3, 0,19, 0.00,60.00,Wednesday
12,8355983.358431776
574,7595897.579155944
2,3, 1, 3, 0,20, 0.00,60.00,Wednesday
12,17447842.01797191
574,7848037.253350669
2,3, 1, 3, 0,21, 0.00,60.00,Wednesday
12,6991133.305501566
574,9745050.043290459
2,3, 1, 3, 0,22, 0.00,60.00,Wednesday
12,5911233.275490853
574,11071435.736347685
2,3, 1, 3, 0,23, 0.00,60.00,Wednesday
12,5166054.966298651
574,12722776.272501773
2,3, 1, 3, 0,24, 0.00,60.00,Wednesday
12,4921413.89361937
574,14253233.577452103
2,4, 1, 4, 0, 1, 0.00,60.00,Thursday
12,2854908.478113554
574,15570516.334770738
2,4, 1, 4, 0, 2, 0.00,60.00,Thursday
12,3782837.915722407
574,17822684.160397289
2,4, 1, 4, 0, 3, 0.00,60.00,Thursday
12,2506744.7999548066
574,18474522.895078549
2,4, 1, 4, 0, 4, 0.00,60.00,Thursday
12,2437973.6828801718
574,18255148.568059658
2,4, 1, 4, 0, 5, 0.00,60.00,Thursday
12,2369660.889343123
574,18254869.476280355
2,4, 1, 4, 0, 6, 0.00,60.00,Thursday
12,3940278.024152819
574,17781669.589628936
2,4, 1, 4, 0, 7, 0.00,60.00,Thursday
12,3839251.676176188
574,16476322.596923294
2,4, 1, 4, 0, 8, 0.00,60.00,Thursday
12,5390909.658356238
574,14125046.010289753
2,4, 1, 4, 0, 9, 0.00,60.00,Thursday
12,15590989.65957186
574,12918014.051396825
2,4, 1, 4, 0,10, 0.00,60.00,Thursday
12,5548437.31398704
574,9870763.714299437
2,4, 1, 4, 0,11, 0.00,60.00,Thursday
12,5103593.167349175
574,8197411.078180347
2,4, 1, 4, 0,12, 0.00,60.00,Thursday
12,9072840.902701745
574,7717785.729094981
2,4, 1, 4, 0,13, 0.00,60.00,Thursday
12,3855116.480365225
574,6044338.9089135159
2,4, 1, 4, 0,14, 0.00,60.00,Thursday
12,3850798.7127419847
574,5200579.094025994
2,4, 1, 4, 0,15, 0.00,60.00,Thursday
12,4929791.809469165
574,4240620.840175102
2,4, 1, 4, 0,16, 0.00,60.00,Thursday
12,4741023.680253656
574,4943103.341405763
2,4, 1, 4, 0,17, 0.00,60.00,Thursday
12,5176205.005571097
574,4424699.74606091
2,4, 1, 4, 0,18, 0.00,60.00,Thursday
12,6274715.43358616
574,3899870.6355885609
2,4, 1, 4, 0,19, 0.00,60.00,Thursday
12,7027516.063071343
574,3635883.3589106888
2,4, 1, 4, 0,20, 0.00,60.00,Thursday
12,9607126.081585333
574,3183985.6076555915
2,4, 1, 4, 0,21, 0.00,60.00,Thursday
12,7580126.041178469
574,3668885.6876503115
2,4, 1, 4, 0,22, 0.00,60.00,Thursday
12,5718870.669294701
574,3956752.4349244327
2,4, 1, 4, 0,23, 0.00,60.00,Thursday
12,6180059.422601903
574,4652812.858923816
2,4, 1, 4, 0,24, 0.00,60.00,Thursday
12,3292353.008816003
574,4154113.5516487977
2,5, 1, 5, 0, 1, 0.00,60.00,Friday
12,2596086.816818558
574,5997792.258738889
2,5, 1, 5, 0, 2, 0.00,60.00,Friday
12,2069418.5550413868
574,4668376.420981935
2,5, 1, 5, 0, 3, 0.00,60.00,Friday
12,2267286.784004578
574,4647702.790748737
2,5, 1, 5, 0, 4, 0.00,60.00,Friday
12,2900060.2110641698
574,5006628.955102788
2,5, 1, 5, 0, 5, 0.00,60.00,Friday
12,2008227.4347245414
574,4886966.976932817
2,5, 1, 5, 0, 6, 0.00,60.00,Friday
12,6345422.8462406699
574,4660132.2367446529
2,5, 1, 5, 0, 7, 0.00,60.00,Friday
12,13896809.271917858
574,6394552.493998798
2,5, 1, 5, 0, 8, 0.00,60.00,Friday
12,4137055.3423932015
574,3101554.9817708416
2,5, 1, 5, 0, 9, 0.00,60.00,Friday
12,3907541.875696687
574,1817465.48843903
2,5, 1, 5, 0,10, 0.00,60.00,Friday
12,3506103.5389876689
574,0.0
2,5, 1, 5, 0,11, 0.00,60.00,Friday
12,20403850.979368368
574,548115.5776050316
2,5, 1, 5, 0,12, 0.00,60.00,Friday
12,15360845.40360251
574,0.0
2,5, 1, 5, 0,13, 0.00,60.00,Friday
12,4815084.99940526
574,0.0
2,5, 1, 5, 0,14, 0.00,60.00,Friday
12,4713870.531692896
574,0.0
2,5, 1, 5, 0,15, 0.00,60.00,Friday
12,3621532.992798267
574,0.0
2,5, 1, 5, 0,16, 0.00,60.00,Friday
12,3939000.012432055
574,0.0
2,5, 1, 5, 0,17, 0.00,60.00,Friday
12,4757435.006552956
574,642332.6554815887
2,5, 1, 5, 0,18, 0.00,60.00,Friday
12,8777940.59306081
574,1659578.6529241265
2,5, 1, 5, 0,19, 0.00,60.00,Friday
12,6988778.519439951
574,2203144.6356091785
2,5, 1, 5, 0,20, 0.00,60.00,Friday
12,9834644.465557807
574,2764870.8833415696
2,5, 1, 5, 0,21, 0.00,60.00,Friday
12,7816736.228129175
574,3951649.353798796
2,5, 1, 5, 0,22, 0.00,60.00,Friday
12,8917905.218623747
574,4746091.67694085
2,5, 1, 5, 0,23, 0.00,60.00,Friday
12,4966291.72214891
574,5334374.51659579
2,5, 1, 5, 0,24, 0.00,60.00,Friday
12,3540178.6517207326
574,6662698.658311959
2,6, 1, 6, 0, 1, 0.00,60.00,Saturday
12,2637503.8912343338
574,7529635.54973303
2,6, 1, 6, 0, 2, 0.00,60.00,Saturday
12,5040674.566063354
574,7760932.518632147
2,6, 1, 6, 0, 3, 0.00,60.00,Saturday
12,3359974.519249593
574,8060609.7874495279
2,6, 1, 6, 0, 4, 0.00,60.00,Saturday
12,2181821.7158491418
574,8781165.24822433
2,6, 1, 6, 0, 5, 0.00,60.00,Saturday
12,2123227.9948419716
574,9140353.749450824
2,6, 1, 6, 0, 6, 0.00,60.00,Saturday
12,18069400.89103213
574,10096206.024908096
2,6, 1, 6, 0, 7, 0.00,60.00,Saturday
12,6168861.130788048
574,9313557.411971068
2,6, 1, 6, 0, 8, 0.00,60.00,Saturday
12,4330168.89800933
574,9110769.371495536
2,6, 1, 6, 0, 9, 0.00,60.00,Saturday
12,4054171.9268608565
574,7240694.031312776
2,6, 1, 6, 0,10, 0.00,60.00,Saturday
12,6487623.328660831
574,6267472.353967748
2,6, 1, 6, 0,11, 0.00,60.00,Saturday
12,3875401.6751125568
574,4836928.629994493
2,6, 1, 6, 0,12, 0.00,60.00,Saturday
12,6073526.648913572
574,3641908.338406495
2,6, 1, 6, 0,13, 0.00,60.00,Saturday
12,11395254.862117228
574,3997751.258823445
2,6, 1, 6, 0,14, 0.00,60.00,Saturday
12,6409791.69087477
574,4443510.658988844
2,6, 1, 6, 0,15, 0.00,60.00,Saturday
12,3914279.5390266429
574,4170020.284120164
2,6, 1, 6, 0,16, 0.00,60.00,Saturday
12,5256168.6092479289
574,4451684.657944421
2,6, 1, 6, 0,17, 0.00,60.00,Saturday
12,4925781.9984299209
574,6868779.445927687
2,6, 1, 6, 0,18, 0.00,60.00,Saturday
12,8951018.825051828
574,6873539.314754247
2,6, 1, 6, 0,19, 0.00,60.00,Saturday
12,12142147.944130406
574,7424959.510431732
2,6, 1, 6, 0,20, 0.00,60.00,Saturday
12,8291278.782871781
574,8403014.38103936
2,6, 1, 6, 0,21, 0.00,60.00,Saturday
12,10701415.355059697
574,8613171.47482989
2,6, 1, 6, 0,22, 0.00,60.00,Saturday
12,25008077.345604049
574,10439131.723182494
2,6, 1, 6, 0,23, 0.00,60.00,Saturday
12,7626145.285362074
574,11084997.187229027
2,6, 1, 6, 0,24, 0.00,60.00,Saturday
12,4844626.677992341
574,12722636.651741816
2,7, 1, 7, 0, 1, 0.00,60.00,Sunday
12,2806934.022028632
574,13796143.090657942
2,7, 1, 7, 0, 2, 0.00,60.00,Sunday
12,2492838.847232607
574,13671468.666022927
2,7, 1, 7, 0, 3, 0.00,60.00,Sunday
12,2426292.4114273877
574,15498927.603798412
2,7, 1, 7, 0, 4, 0.00,60.00,Sunday
12,5243392.273305273
574,16540108.622070389
2,7, 1, 7, 0, 5, 0.00,60.00,Sunday
12,15510236.247131568
574,18280592.30711622
2,7, 1, 7, 0, 6, 0.00,60.00,Sunday
12,3029965.5715048948
574,17482797.214749755
2,7, 1, 7, 0, 7, 0.00,60.00,Sunday
12,9100426.988672246
574,17370411.223952306
2,7, 1, 7, 0, 8, 0.00,60.00,Sunday
12,5581607.519804779
574,11972790.949960443
2,7, 1, 7, 0, 9, 0.00,60.00,Sunday
12,4160814.869411792
574,11184967.700635534
2,7, 1, 7, 0,10, 0.00,60.00,Sunday
12,8165553.473000227
574,10241924.866792759
2,7, 1, 7, 0,11, 0.00,60.00,Sunday
12,4235090.561085226
574,8931569.750226703
2,7, 1, 7, 0,12, 0.00,60.00,Sunday
12,4001566.1275053115
574,7712294.399071261
2,7, 1, 7, 0,13, 0.00,60.00,Sunday
12,5292291.263120755
574,7135306.239397215
2,7, 1, 7, 0,14, 0.00,60.00,Sunday
12,3913080.717221926
574,7015728.383782401
2,7, 1, 7, 0,15, 0.00,60.00,Sunday
12,3986998.586114722
574,6859591.81906498
2,7, 1, 7, 0,16, 0.00,60.00,Sunday
12,4124516.4307765096
574,6861471.622968415
2,7, 1, 7, 0,17, 0.00,60.00,Sunday
12,11391844.981820696
574,6718919.111721372
2,7, 1, 7, 0,18, 0.00,60.00,Sunday
12,9513778.76047457
574,5545924.593218881
2,7, 1, 7, 0,19, 0.00,60.00,Sunday
12,7057239.660846363
574,4735234.157540009
2,7, 1, 7, 0,20, 0.00,60.00,Sunday
12,6964954.764993593
574,4943705.320366386
2,7, 1, 7, 0,21, 0.00,60.00,Sunday
12,6509415.066055995
574,6039428.487946462
2,7, 1, 7, 0,22, 0.00,60.00,Sunday
12,7030536.410131637
574,7227404.118877239
2,7, 1, 7, 0,23, 0.00,60.00,Sunday
12,6166452.075136265
574,7632134.483570855
2,7, 1, 7, 0,24, 0.00,60.00,Sunday
12,3560186.715389271
574,7402712.735326527
2,8, 1, 8, 0, 1, 0.00,60.00,Monday
12,2651300.355788706
574,8039908.715212923
2,8, 1, 8, 0, 2, 0.00,60.00,Monday
12,3494114.7823633535
574,8730581.725920532
2,8, 1, 8, 0, 3, 0.00,60.00,Monday
12,2273385.278459426
574,9843536.220265458
2,8, 1, 8, 0, 4, 0.00,60.00,Monday
12,2283403.8651605125
574,12538261.472483922
2,8, 1, 8, 0, 5, 0.00,60.00,Monday
12,2222073.4158548146
574,12796229.910668547
2,8, 1, 8, 0, 6, 0.00,60.00,Monday
12,2638589.7839307256
574,11609667.427563694
2,8, 1, 8, 0, 7, 0.00,60.00,Monday
12,3718429.339868158
574,12007612.822357538
2,8, 1, 8, 0, 8, 0.00,60.00,Monday
12,5513451.144247701
574,9957674.052969957
2,8, 1, 8, 0, 9, 0.00,60.00,Monday
12,10456550.467145607
574,6624288.159104446
2,8, 1, 8, 0,10, 0.00,60.00,Monday
12,3796366.101572295
574,4078148.182256613
2,8, 1, 8, 0,11, 0.00,60.00,Monday
12,3842418.3493105836
574,3617014.2092602758
2,8, 1, 8, 0,12, 0.00,60.00,Monday
12,5013098.95118855
574,2624013.2008260756
2,8, 1, 8, 0,13, 0.00,60.00,Monday
12,4774519.158406733
574,1159062.1801167809
2,8, 1, 8, 0,14, 0.00,60.00,Monday
12,3534802.053354035
574,170634.96543502797
2,8, 1, 8, 0,15, 0.00,60.00,Monday
12,4999206.447782828
574,282397.03369727029
2,8, 1, 8, 0,16, 0.00,60.00,Monday
12,5456775.726436578
574,113968.95423553672
2,8, 1, 8, 0,17, 0.00,60.00,Monday
12,4808722.341382099
574,2539235.3430617779
2,8, 1, 8, 0,18, 0.00,60.00,Monday
12,7560795.516746304
574,4703614.778637557
2,8, 1, 8, 0,19, 0.00,60.00,Monday
12,16824713.63480452
574,5816592.244492143
2,8, 1, 8, 0,20, 0.00,60.00,Monday
12,7010416.758470005
574,6625153.145554518
2,8, 1, 8, 0,21, 0.00,60.00,Monday
12,6517398.6249455609
574,6334706.734798657
2,8, 1, 8, 0,22, 0.00,60.00,Monday
12,7007955.53250224
574,7706931.439574561
2,8, 1, 8, 0,23, 0.00,60.00,Monday
12,5028654.432751476
574,7640908.746554888
2,8, 1, 8, 0,24, 0.00,60.00,Monday
12,3618920.4173931449
574,9575025.208841414
2,9, 1, 9, 0, 1, 0.00,60.00,Tuesday
12,2727962.050036585
574,10875302.17712117
2,9, 1, 9, 0, 2, 0.00,60.00,Tuesday
12,2426316.044215786
574,11211070.124192836
2,9, 1, 9, 0, 3, 0.00,60.00,Tuesday
12,2320537.3107423109
574,11587491.468870936
2,9, 1, 9, 0, 4, 0.00,60.00,Tuesday
12,2265490.724373935
574,11875729.777002788
2,9, 1, 9, 0, 5, 0.00,60.00,Tuesday
12,3334914.435507062
574,11982924.94706971
2,9, 1, 9, 0, 6, 0.00,60.00,Tuesday
12,2648851.33049349
574,11989198.8522026
2,9, 1, 9, 0, 7, 0.00,60.00,Tuesday
12,3708096.911279307
574,11625459.769859968
2,9, 1, 9, 0, 8, 0.00,60.00,Tuesday
12,5534780.760037839
574,9376858.715734633
2,9, 1, 9, 0, 9, 0.00,60.00,Tuesday
12,4040860.281577848
574,6748352.2904605329
2,9, 1, 9, 0,10, 0.00,60.00,Tuesday
12,5110719.109404711
574,5219655.340974108
2,9, 1, 9, 0,11, 0.00,60.00,Tuesday
12,5090990.730007063
574,4289937.8993947659
2,9, 1, 9, 0,12, 0.00,60.00,Tuesday
12,5026903.566414995
574,3661300.6606721745
2,9, 1, 9, 0,13, 0.00,60.00,Tuesday
12,3787404.1239393267
574,3539943.792369301
2,9, 1, 9, 0,14, 0.00,60.00,Tuesday
12,3797283.763334848
574,3221286.3174703347
2,9, 1, 9, 0,15, 0.00,60.00,Tuesday
12,3865348.394956412
574,2360263.177372384
2,9, 1, 9, 0,16, 0.00,60.00,Tuesday
12,5196626.802311421
574,2459021.681309978
2,9, 1, 9, 0,17, 0.00,60.00,Tuesday
12,4849187.443291671
574,4035869.1771493025
2,9, 1, 9, 0,18, 0.00,60.00,Tuesday
12,7484178.417574663
574,5171975.483407262
2,9, 1, 9, 0,19, 0.00,60.00,Tuesday
12,7079547.761334162
574,5560316.917466737
2,9, 1, 9, 0,20, 0.00,60.00,Tuesday
12,6982727.671676286
574,5601050.346479024
2,9, 1, 9, 0,21, 0.00,60.00,Tuesday
12,6539960.31212793
574,7169168.599412091
2,9, 1, 9, 0,22, 0.00,60.00,Tuesday
12,5824601.2252813479
574,7867280.7647461299
2,9, 1, 9, 0,23, 0.00,60.00,Tuesday
12,5062276.231977916
574,8884437.612431465
2,9, 1, 9, 0,24, 0.00,60.00,Tuesday
12,9553311.32078233
574,10997924.78444476
2,10, 1,10, 0, 1, 0.00,60.00,Wednesday
12,3290957.502447769
574,11549614.122811974
2,10, 1,10, 0, 2, 0.00,60.00,Wednesday
12,2452517.17082123
574,12180139.53754931
2,10, 1,10, 0, 3, 0.00,60.00,Wednesday
12,2338037.7946659557
574,12234760.723537926
2,10, 1,10, 0, 4, 0.00,60.00,Wednesday
12,2304749.5327025137
574,13327747.887863154
2,10, 1,10, 0, 5, 0.00,60.00,Wednesday
12,2245901.974944488
574,13677548.035873244
2,10, 1,10, 0, 6, 0.00,60.00,Wednesday
12,3833353.0526888959
574,13827843.114454125
2,10, 1,10, 0, 7, 0.00,60.00,Wednesday
12,3736486.8693183066
574,12675484.846886693
2,10, 1,10, 0, 8, 0.00,60.00,Wednesday
12,4398765.7838272419
574,11647879.507967046
2,10, 1,10, 0, 9, 0.00,60.00,Wednesday
12,4083238.7462425238
574,8315753.361031787
2,10, 1,10, 0,10, 0.00,60.00,Wednesday
12,17333431.688260527
574,6556273.255924828
2,10, 1,10, 0,11, 0.00,60.00,Wednesday
12,13380358.822566797
574,4869407.527399699
2,10, 1,10, 0,12, 0.00,60.00,Wednesday
12,4660113.361329554
574,2561666.207403074
2,10, 1,10, 0,13, 0.00,60.00,Wednesday
12,3726567.036230292
574,1289835.933104146
2,10, 1,10, 0,14, 0.00,60.00,Wednesday
12,3743685.375094994
574,1238907.4896203655
2,10, 1,10, 0,15, 0.00,60.00,Wednesday
12,4952283.701540578
574,543917.8667342828
2,10, 1,10, 0,16, 0.00,60.00,Wednesday
12,3959594.1896791218
574,761691.9517967507
2,10, 1,10, 0,17, 0.00,60.00,Wednesday
12,4817418.817689494
574,2860881.405095043
2,10, 1,10, 0,18, 0.00,60.00,Wednesday
12,6297057.981575762
574,4726227.46364473
2,10, 1,10, 0,19, 0.00,60.00,Wednesday
12,8303838.865647652
574,5622930.802097428
2,10, 1,10, 0,20, 0.00,60.00,Wednesday
12,17491174.9489077
574,5746876.32393872
2,10, 1,10, 0,21, 0.00,60.00,Wednesday
12,6862440.640087349
574,6335602.839107964
2,10, 1,10, 0,22, 0.00,60.00,Wednesday
12,5836223.872174057
574,8297153.562797024
2,10, 1,10, 0,23, 0.00,60.00,Wednesday
12,5071602.226191543
574,9229366.892674232
2,10, 1,10, 0,24, 0.00,60.00,Wednesday
12,4858225.208045965
574,11895713.066988133
2,11, 1,11, 0, 1, 0.00,60.00,Thursday
12,2763291.492323731
574,12181989.573696822
2,11, 1,11, 0, 2, 0.00,60.00,Thursday
12,3653916.143636631
574,13033809.576489918
2,11, 1,11, 0, 3, 0.00,60.00,Thursday
12,2353162.0838313449
574,12794144.533617776
2,11, 1,11, 0, 4, 0.00,60.00,Thursday
12,2307638.3657686996
574,13434593.666172248
2,11, 1,11, 0, 5, 0.00,60.00,Thursday
12,2245804.754727142
574,13673952.269156455
2,11, 1,11, 0, 6, 0.00,60.00,Thursday
12,3807544.9291044489
574,12871697.731286794
2,11, 1,11, 0, 7, 0.00,60.00,Thursday
12,3726205.4740507125
574,12295219.302183608
2,11, 1,11, 0, 8, 0.00,60.00,Thursday
12,5595470.65566344
574,11523741.097457543
2,11, 1,11, 0, 9, 0.00,60.00,Thursday
12,15621501.346117728
574,10709302.489996925
2,11, 1,11, 0,10, 0.00,60.00,Thursday
12,5287056.014003768
574,6756325.760340324
2,11, 1,11, 0,11, 0.00,60.00,Thursday
12,4953275.904101651
574,3857464.7977924339
2,11, 1,11, 0,12, 0.00,60.00,Thursday
12,8963669.546225733
574,2502819.0935815579
2,11, 1,11, 0,13, 0.00,60.00,Thursday
12,3548565.1627536138
574,1363738.2246706815
2,11, 1,11, 0,14, 0.00,60.00,Thursday
12,3553777.2938771757
574,872449.2606354853
2,11, 1,11, 0,15, 0.00,60.00,Thursday
12,4855949.971196482
574,1479726.3354201178
2,11, 1,11, 0,16, 0.00,60.00,Thursday
12,4994507.119705211
574,2143096.539717692
2,11, 1,11, 0,17, 0.00,60.00,Thursday
12,4813555.054183042
574,2717977.0525101188
2,11, 1,11, 0,18, 0.00,60.00,Thursday
12,6237839.808913069
574,2535996.459213199
2,11, 1,11, 0,19, 0.00,60.00,Thursday
12,8128887.596158022
574,2222818.2241885589
2,11, 1,11, 0,20, 0.00,60.00,Thursday
12,9612115.538343896
574,3191724.8846385085
2,11, 1,11, 0,21, 0.00,60.00,Thursday
12,6449914.734454429
574,3838761.611749391
2,11, 1,11, 0,22, 0.00,60.00,Thursday
12,5708959.486746762
574,3590179.500789427
2,11, 1,11, 0,23, 0.00,60.00,Thursday
12,6181798.432809834
574,4661264.236849695
2,11, 1,11, 0,24, 0.00,60.00,Thursday
12,3512919.844168012
574,5654510.077656658
2,12, 1,12, 0, 1, 0.00,60.00,Friday
12,2616746.665115158
574,6761913.106300468
2,12, 1,12, 0, 2, 0.00,60.00,Friday
12,3478187.22048166
574,8144393.6760171749
2,12, 1,12, 0, 3, 0.00,60.00,Friday
12,2247609.7430097286
574,8890207.632784093
2,12, 1,12, 0, 4, 0.00,60.00,Friday
12,2228242.000838108
574,10498056.243772285
2,12, 1,12, 0, 5, 0.00,60.00,Friday
12,2185233.514298865
574,11433676.982065978
2,12, 1,12, 0, 6, 0.00,60.00,Friday
12,7194866.199254433
574,11755055.385217373
2,12, 1,12, 0, 7, 0.00,60.00,Friday
12,13388744.664869242
574,12472178.086173008
2,12, 1,12, 0, 8, 0.00,60.00,Friday
12,4384806.703109062
574,11131591.854910523
2,12, 1,12, 0, 9, 0.00,60.00,Friday
12,4122891.4629096228
574,9782340.48368598
2,12, 1,12, 0,10, 0.00,60.00,Friday
12,3920826.546376363
574,8681416.280175148
2,12, 1,12, 0,11, 0.00,60.00,Friday
12,20976317.15471504
574,8065978.592595176
2,12, 1,12, 0,12, 0.00,60.00,Friday
12,15923216.704283717
574,6001448.3510098219
2,12, 1,12, 0,13, 0.00,60.00,Friday
12,5157830.834681878
574,5920124.714647526
2,12, 1,12, 0,14, 0.00,60.00,Friday
12,5044230.164225143
574,5531870.761560879
2,12, 1,12, 0,15, 0.00,60.00,Friday
12,3945956.877254786
574,5341631.7203651829
2,12, 1,12, 0,16, 0.00,60.00,Friday
12,4076651.490858955
574,5091148.921019769
2,12, 1,12, 0,17, 0.00,60.00,Friday
12,6045874.130835233
574,6325447.086081909
2,12, 1,12, 0,18, 0.00,60.00,Friday
12,7626207.74574519
574,6431263.530525197
2,12, 1,12, 0,19, 0.00,60.00,Friday
12,8252191.631283136
574,5670310.9442672
2,12, 1,12, 0,20, 0.00,60.00,Friday
12,8642667.114790077
574,5485768.669929674
2,12, 1,12, 0,21, 0.00,60.00,Friday
12,7896950.543357253
574,6873149.972368689
2,12, 1,12, 0,22, 0.00,60.00,Friday
12,9002261.531770487
574,7712345.479891827
2,12, 1,12, 0,23, 0.00,60.00,Friday
12,5052019.074116211
574,8505068.507376181
2,12, 1,12, 0,24, 0.00,60.00,Friday
12,4742648.724511974
574,9163735.922134262
2,13, 1,13, 0, 1, 0.00,60.00,Saturday
12,2676630.764159963
574,8976773.92524988
2,13, 1,13, 0, 2, 0.00,60.00,Saturday
12,5059539.360132411
574,8258620.374354266
2,13, 1,13, 0, 3, 0.00,60.00,Saturday
12,2244377.1424590249
574,8770647.341867628
2,13, 1,13, 0, 4, 0.00,60.00,Saturday
12,2175544.297540252
574,8548989.961657666
2,13, 1,13, 0, 5, 0.00,60.00,Saturday
12,2104462.5835322279
574,8446300.153849015
2,13, 1,13, 0, 6, 0.00,60.00,Saturday
12,18403409.390167376
574,9610331.492431902
2,13, 1,13, 0, 7, 0.00,60.00,Saturday
12,6407318.056045026
574,8733627.364627608
2,13, 1,13, 0, 8, 0.00,60.00,Saturday
12,4275142.120782727
574,7075560.445983107
2,13, 1,13, 0, 9, 0.00,60.00,Saturday
12,3961029.5454519356
574,3795749.3054697785
2,13, 1,13, 0,10, 0.00,60.00,Saturday
12,6378137.597756114
574,2029085.6646772079
2,13, 1,13, 0,11, 0.00,60.00,Saturday
12,3771119.275795958
574,979961.5212539909
2,13, 1,13, 0,12, 0.00,60.00,Saturday
12,5976266.471296062
574,0.0
2,13, 1,13, 0,13, 0.00,60.00,Saturday
12,11308704.265529704
574,0.0
2,13, 1,13, 0,14, 0.00,60.00,Saturday
12,6150076.770260602
574,0.0
2,13, 1,13, 0,15, 0.00,60.00,Saturday
12,3801532.992798267
574,0.0
2,13, 1,13, 0,16, 0.00,60.00,Saturday
12,5136530.099156897
574,0.0
2,13, 1,13, 0,17, 0.00,60.00,Saturday
12,4741038.676983047
574,35901.423848599465
2,13, 1,13, 0,18, 0.00,60.00,Saturday
12,8817489.989082158
574,1772273.6764906948
2,13, 1,13, 0,19, 0.00,60.00,Saturday
12,12022239.22428085
574,1919420.0866522103
2,13, 1,13, 0,20, 0.00,60.00,Saturday
12,8113330.358392763
574,1769214.3194260209
2,13, 1,13, 0,21, 0.00,60.00,Saturday
12,10535715.336616843
574,2321461.9440917719
2,13, 1,13, 0,22, 0.00,60.00,Saturday
12,24954168.398238657
574,4071985.8593885286
2,13, 1,13, 0,23, 0.00,60.00,Saturday
12,7663636.7448720759
574,5359166.550186179
2,13, 1,13, 0,24, 0.00,60.00,Saturday
12,4663430.6802182099
574,6018269.954013534
2,14, 1,14, 0, 1, 0.00,60.00,Sunday
12,2593534.0928645117
574,5903377.74207094
2,14, 1,14, 0, 2, 0.00,60.00,Sunday
12,2269656.2198011626
574,5416882.476152327
2,14, 1,14, 0, 3, 0.00,60.00,Sunday
12,2164052.5469860278
574,5799778.577890854
2,14, 1,14, 0, 4, 0.00,60.00,Sunday
12,4970993.665653717
574,6145341.03496777
2,14, 1,14, 0, 5, 0.00,60.00,Sunday
12,15277202.700260085
574,6977136.894797373
2,14, 1,14, 0, 6, 0.00,60.00,Sunday
12,2821506.185929164
574,6180101.802332391
2,14, 1,14, 0, 7, 0.00,60.00,Sunday
12,8836879.530759672
574,6403238.369013161
2,14, 1,14, 0, 8, 0.00,60.00,Sunday
12,5410279.517690281
574,5618726.759508325
2,14, 1,14, 0, 9, 0.00,60.00,Sunday
12,3963516.1931048978
574,3887719.937823418
2,14, 1,14, 0,10, 0.00,60.00,Sunday
12,8051982.0064869499
574,2616986.0252893457
2,14, 1,14, 0,11, 0.00,60.00,Sunday
12,3654360.3274726115
574,1161418.2754270542
2,14, 1,14, 0,12, 0.00,60.00,Sunday
12,3613045.6653140357
574,0.0
2,14, 1,14, 0,13, 0.00,60.00,Sunday
12,4920421.355619369
574,0.0
2,14, 1,14, 0,14, 0.00,60.00,Sunday
12,3543393.595660419
574,0.0
2,14, 1,14, 0,15, 0.00,60.00,Sunday
12,3624156.5504537455
574,97034.35720100758
2,14, 1,14, 0,16, 0.00,60.00,Sunday
12,3785581.344375616
574,983131.6088304431
2,14, 1,14, 0,17, 0.00,60.00,Sunday
12,11230046.758347583
574,1906500.2497320318
2,14, 1,14, 0,18, 0.00,60.00,Sunday
12,9330546.421679749
574,1687923.3992434098
2,14, 1,14, 0,19, 0.00,60.00,Sunday
12,6983189.860041541
574,1996443.6427007055
2,14, 1,14, 0,20, 0.00,60.00,Sunday
12,6904780.277206174
574,2718104.2438437684
2,14, 1,14, 0,21, 0.00,60.00,Sunday
12,6458077.017923041
574,4140650.1286704225
2,14, 1,14, 0,22, 0.00,60.00,Sunday
12,6978346.6964877829
574,5253334.827319687
2,14, 1,14, 0,23, 0.00,60.00,Sunday
12,6124510.737878427
574,6077992.997994732
2,14, 1,14, 0,24, 0.00,60.00,Sunday
12,3569640.2684854378
574,7752359.881840185
2,15, 1,15, 0, 1, 0.00,60.00,Monday
12,3795315.6046283657
574,8379988.314222765
2,15, 1,15, 0, 2, 0.00,60.00,Monday
12,2371785.1989097467
574,9194203.633437545
2,15, 1,15, 0, 3, 0.00,60.00,Monday
12,2265116.347552214
574,9537703.263385164
2,15, 1,15, 0, 4, 0.00,60.00,Monday
12,2220846.703168113
574,10224535.30390667
2,15, 1,15, 0, 5, 0.00,60.00,Monday
12,2159353.649513172
574,10476489.691485674
2,15, 1,15, 0, 6, 0.00,60.00,Monday
12,2598075.8280152778
574,10111226.689386573
2,15, 1,15, 0, 7, 0.00,60.00,Monday
12,3687743.1049109718
574,10872658.125336932
2,15, 1,15, 0, 8, 0.00,60.00,Monday
12,5496519.921134065
574,9318894.619421166
2,15, 1,15, 0, 9, 0.00,60.00,Monday
12,10430789.669630744
574,4915854.874934957
2,15, 1,15, 0,10, 0.00,60.00,Monday
12,3750435.1211948047
574,2379354.505191786
2,15, 1,15, 0,11, 0.00,60.00,Monday
12,3590386.3034022275
574,952851.9569098582
2,15, 1,15, 0,12, 0.00,60.00,Monday
12,4762345.911212376
574,0.0
2,15, 1,15, 0,13, 0.00,60.00,Monday
12,4744337.104011258
574,0.0
2,15, 1,15, 0,14, 0.00,60.00,Monday
12,3530188.525911049
574,0.0
2,15, 1,15, 0,15, 0.00,60.00,Monday
12,4812141.911141148
574,0.0
2,15, 1,15, 0,16, 0.00,60.00,Monday
12,5274803.079300162
574,0.0
2,15, 1,15, 0,17, 0.00,60.00,Monday
12,4740067.995483241
574,0.0
2,15, 1,15, 0,18, 0.00,60.00,Monday
12,7958275.644701335
574,371142.31448077867
2,15, 1,15, 0,19, 0.00,60.00,Monday
12,15853676.148977489
574,2311556.498901618
2,15, 1,15, 0,20, 0.00,60.00,Monday
12,6894142.00107593
574,2324639.1778600227
2,15, 1,15, 0,21, 0.00,60.00,Monday
12,6439999.181461126
574,3472027.0332321159
2,15, 1,15, 0,22, 0.00,60.00,Monday
12,6915522.893118299
574,4254859.376753087
2,15, 1,15, 0,23, 0.00,60.00,Monday
12,4986038.581279974
574,6064727.736972095
2,15, 1,15, 0,24, 0.00,60.00,Monday
12,4676174.580093707
574,6707410.354319178
2,16, 1,16, 0, 1, 0.00,60.00,Tuesday
12,2607186.1979890086
574,6408311.659734177
2,16, 1,16, 0, 2, 0.00,60.00,Tuesday
12,2307744.2271695255
574,6825597.586467781
2,16, 1,16, 0, 3, 0.00,60.00,Tuesday
12,2167153.4757846009
574,5914468.884798075
2,16, 1,16, 0, 4, 0.00,60.00,Tuesday
12,2172289.571168133
574,8428611.329717081
2,16, 1,16, 0, 5, 0.00,60.00,Tuesday
12,2133487.4400920358
574,9519807.455375702
2,16, 1,16, 0, 6, 0.00,60.00,Tuesday
12,2582001.351944342
574,9516699.464254279
2,16, 1,16, 0, 7, 0.00,60.00,Tuesday
12,3645362.3079745757
574,9305170.793849446
2,16, 1,16, 0, 8, 0.00,60.00,Tuesday
12,5510747.202272856
574,8446688.18657204
2,16, 1,16, 0, 9, 0.00,60.00,Tuesday
12,4069166.9915424997
574,7795298.371542295