Program Version,EnergyPlus, Version 9.3.0-baff08990c, YMD=2020.04.27 17:57
1,5,Environment Title[],Latitude[deg],Longitude[deg],Time Zone[],Elevation[m]
2,8,Day of Simulation[],Month[],Day of Month[],DST Indicator[1=yes 0=no],Hour[],StartMinute[],EndMinute[],DayType
3,5,Cumulative Day of Simulation[],Month[],Day of Month[],DST Indicator[1=yes 0=no],DayType  ! When Daily Meters Requested
4,2,Cumulative Days of Simulation[],Month[]  ! When Monthly Meters Requested
5,1,Cumulative Days of Simulation[] ! When Run Period Meters Requested
6,1,Calendar Year of Simulation[] ! When Annual Meters Requested
16,11,Electricity:Facility [J] !RunPeriod [Value,Min,Month,Day,Hour,Minute,Max,Month,Day,Hour,Minute]
825,11,Gas:Facility [J] !RunPeriod [Value,Min,Month,Day,Hour,Minute,Max,Month,Day,Hour,Minute]
107,11,interior lighting:InteriorLights:Electricity [J] !RunPeriod [Value,Min,Month,Day,Hour,Minute,Max,Month,Day,Hour,Minute]
28,11,ExteriorLights:Electricity [J] !RunPeriod [Value,Min,Month,Day,Hour,Minute,Max,Month,Day,Hour,Minute]
219,11,mech vent:InteriorEquipment:Electricity [J] !RunPeriod [Value,Min,Month,Day,Hour,Minute,Max,Month,Day,Hour,Minute]
270,11,whole house fan:InteriorEquipment:Electricity [J] !RunPeriod [Value,Min,Month,Day,Hour,Minute,Max,Month,Day,Hour,Minute]
204,11,fridge:InteriorEquipment:Electricity [J] !RunPeriod [Value,Min,Month,Day,Hour,Minute,Max,Month,Day,Hour,Minute]
189,11,dishwasher:InteriorEquipment:Electricity [J] !RunPeriod [Value,Min,Month,Day,Hour,Minute,Max,Month,Day,Hour,Minute]
159,11,clothes washer:InteriorEquipment:Electricity [J] !RunPeriod [Value,Min,Month,Day,Hour,Minute,Max,Month,Day,Hour,Minute]
144,11,clothes dryer:InteriorEquipment:Electricity [J] !RunPeriod [Value,Min,Month,Day,Hour,Minute,Max,Month,Day,Hour,Minute]
174,11,cooking range:InteriorEquipment:Electricity [J] !RunPeriod [Value,Min,Month,Day,Hour,Minute,Max,Month,Day,Hour,Minute]
255,11,misc tv:InteriorEquipment:Electricity [J] !RunPeriod [Value,Min,Month,Day,Hour,Minute,Max,Month,Day,Hour,Minute]
240,11,misc plug loads:InteriorEquipment:Electricity [J] !RunPeriod [Value,Min,Month,Day,Hour,Minute,Max,Month,Day,Hour,Minute]
646,11,Heating:DistrictHeating [J] !RunPeriod [Value,Min,Month,Day,Hour,Minute,Max,Month,Day,Hour,Minute]
695,11,Cooling:DistrictCooling [J] !RunPeriod [Value,Min,Month,Day,Hour,Minute,Max,Month,Day,Hour,Minute]
12,1,Electricity:Facility [J] !Hourly
821,1,Gas:Facility [J] !Hourly
103,1,interior lighting:InteriorLights:Electricity [J] !Hourly
24,1,ExteriorLights:Electricity [J] !Hourly
215,1,mech vent:InteriorEquipment:Electricity [J] !Hourly
266,1,whole house fan:InteriorEquipment:Electricity [J] !Hourly
200,1,fridge:InteriorEquipment:Electricity [J] !Hourly
185,1,dishwasher:InteriorEquipment:Electricity [J] !Hourly
155,1,clothes washer:InteriorEquipment:Electricity [J] !Hourly
140,1,clothes dryer:InteriorEquipment:Electricity [J] !Hourly
170,1,cooking range:InteriorEquipment:Electricity [J] !Hourly
251,1,misc tv:InteriorEquipment:Electricity [J] !Hourly
236,1,misc plug loads:InteriorEquipment:Electricity [J] !Hourly
End of Data Dictionary
1,RUN PERIOD 1,  39.83,-104.65,  -7.00,1650.00
2,1, 1, 1, 0, 1, 0.00,60.00,Monday
12,2681032.0974669039
24,31520.721656648944
103,350751.86013675309
140,96538.02982053661
155,0.0
170,33823.53604600406
185,0.0
200,227930.72181057043
215,0.0
236,1208423.3329248299
251,304933.84876410107
266,0.0
821,12296839.937427879
2,1, 1, 1, 0, 2, 0.00,60.00,Monday
12,2416514.6783146678
24,18912.432993989292
103,210451.11608205099
140,57922.81789232189
155,0.0
170,33823.53604600406
185,0.0
200,222232.45376530625
215,0.0
236,1117791.5829554678
251,282063.8101067935
266,0.0
821,14596214.821146708
2,1, 1, 1, 0, 3, 0.00,60.00,Monday
12,2328050.2863265408
24,12608.288662659528
103,140300.74405470069
140,38615.211928214565
155,0.0
170,19327.734883430905
185,0.0
200,216534.18572004169
215,0.0
236,1117791.5829554678
251,282063.8101067935
266,0.0
821,15964278.417174403
2,1, 1, 1, 0, 4, 0.00,60.00,Monday
12,2285679.9808177019
24,12608.288662659528
103,140300.74405470069
140,19307.60596410732
155,0.0
170,19327.734883430905
185,0.0
200,210835.9176747775
215,0.0
236,1087580.999632347
251,274440.4638876909
266,0.0
821,16982893.988627417
2,1, 1, 1, 0, 5, 0.00,60.00,Monday
12,2226317.0383216317
24,14017.579698740728
103,155982.85494556168
140,38615.211928214565
155,0.0
170,33823.53604600406
185,0.0
200,205137.64962951334
215,0.0
236,996949.2496629846
251,251570.42523038339
266,0.0
821,17427886.397487355
2,1, 1, 1, 0, 6, 0.00,60.00,Monday
12,2665391.66021936
24,38462.59422001201
103,427998.6548311974
140,57922.81789232189
155,0.0
170,53151.2709294349
185,0.0
200,205137.64962951334
215,0.0
236,1087580.999632347
251,274440.4638876909
266,0.0
821,16953981.075335526
2,1, 1, 1, 0, 7, 0.00,60.00,Monday
12,3721977.3105567165
24,90299.55374739846
103,1004822.6938274336
140,154460.8477128584
155,0.0
170,120798.34302144323
185,0.0
200,216534.18572004169
215,0.0
236,1299055.0828941924
251,327803.8874214086
266,0.0
821,16332222.540502433
2,1, 1, 1, 0, 8, 0.00,60.00,Monday
12,5545926.883411663
24,114271.75744381984
103,1271577.215811016
140,308921.6954257168
155,0.0
170,202941.21627602424
185,0.0
200,227930.72181057043
215,0.0
236,1419897.4161866753
251,358297.2722978187
266,0.0
821,15345939.59336713
2,1, 1, 1, 0, 9, 0.00,60.00,Monday
12,10129461.492293887
24,121438.7837423188
103,1351329.444621973
140,463382.54313857536
155,1379215.6923711585
170,222268.95115945536
185,0.0
200,233628.98985583458
215,0.0
236,1027159.8329861055
251,259193.77144948589
266,0.0
821,13631229.49165212
2,1, 1, 1, 0,10, 0.00,60.00,Monday
12,5001135.839389114
24,124830.57748974454
103,1389072.1707901357
140,656458.6027796477
155,0.0
170,231932.81860117054
185,0.0
200,233628.98985583458
215,0.0
236,694843.4164317773
251,175336.9630393581
266,0.0
821,9050492.271922172
2,1, 1, 1, 0,11, 0.00,60.00,Monday
12,3864865.013654679
24,121436.52005279417
103,1351304.25505556
140,752996.6326001843
155,0.0
170,202941.21627602424
185,0.0
200,227930.72181057043
215,0.0
236,725053.9997548979
251,182960.30925846063
266,0.0
821,5983523.396497996
2,1, 1, 1, 0,12, 0.00,60.00,Monday
12,3879810.017651044
24,116734.14550150292
103,1298977.8318571493
140,781958.0415463452
155,0.0
170,241596.68604288577
185,0.0
200,227930.72181057043
215,0.0
236,755264.5830780187
251,190583.65547756313
266,0.0
821,4317620.302799407
2,1, 1, 1, 0,13, 0.00,60.00,Monday
12,4983554.11990735
24,113340.08806455229
103,1261209.916122571
140,714381.4206719695
155,0.0
170,275420.22208889006
185,0.0
200,239327.25790109879
215,0.0
236,725053.9997548979
251,182960.30925846063
266,0.0
821,4059264.682206623
2,1, 1, 1, 0,14, 0.00,60.00,Monday
12,3791995.967696882
24,112341.33688407114
103,1250096.1529865785
140,646804.7997975946
155,0.0
170,222268.95115945536
185,0.0
200,239327.25790109879
215,0.0
236,845896.3330473809
251,213453.69413487073
266,0.0
821,4070951.5147724177
2,1, 1, 1, 0,15, 0.00,60.00,Monday
12,5043670.04220796
24,114091.83433341766
103,1269575.0926888814
140,550266.7699770579
155,0.0
170,275420.22208889006
185,0.0
200,239327.25790109879
215,0.0
236,936528.0830167432
251,236323.73279217829
266,0.0
821,3219541.154772217
2,1, 1, 1, 0,16, 0.00,60.00,Monday
12,5494410.020046284
24,124772.48411455617
103,1388425.7274875076
140,588881.981905272
155,266959.670039647
170,212605.08371773945
185,0.0
200,233628.98985583458
215,0.0
236,966738.6663398639
251,243947.07901128083
266,0.0
821,3191048.2589037257
2,1, 1, 1, 0,17, 0.00,60.00,Monday
12,4838154.7096173199
24,153230.21491511088
103,1705093.6680979355
140,530959.1640129502
155,0.0
170,444537.90231891
185,0.0
200,250723.79399162753
215,0.0
236,1178212.7496017093
251,297310.5025449985
266,0.0
821,4881050.534846669
2,1, 1, 1, 0,18, 0.00,60.00,Monday
12,8777085.601950068
24,203210.06438551093
103,2261252.418587706
140,521305.36103089709
155,0.0
170,724790.058128658
185,0.0
200,273516.86617268456
215,0.0
236,1601160.9161253998
251,404037.3496124338
266,0.0
821,6809987.824650186
2,1, 1, 1, 0,19, 0.00,60.00,Monday
12,15084535.260220923
24,249271.51164091205
103,2773808.5231531264
140,492343.95208473617
155,0.0
170,565336.2453403532
185,0.0
200,284913.40226321297
215,0.0
236,1903266.749356607
251,480270.8118034591
266,0.0
821,8772285.271245169
2,1, 1, 1, 0,20, 0.00,60.00,Monday
12,8157969.389938207
24,252368.5332648852
103,2808271.1254794669
140,492343.95208473617
155,0.0
170,289916.02325146328
185,0.0
200,273516.86617268456
215,0.0
236,2024109.08264909
251,510764.1966798692
266,0.0
821,9229365.199268658
2,1, 1, 1, 0,21, 0.00,60.00,Monday
12,6538846.545541336
24,209519.52997124717
103,2331462.0037226008
140,501997.75506678936
155,0.0
170,169117.68023001997
185,0.0
200,267818.59812742008
215,0.0
236,2144951.415941573
251,541257.5815562792
266,0.0
821,9590348.054546928
2,1, 1, 1, 0,22, 0.00,60.00,Monday
12,6531560.230775987
24,158078.74132085147
103,1759046.419378836
140,521305.36103089709
155,0.0
170,120798.34302144323
185,0.0
200,262120.3300821558
215,0.0
236,2084530.2492953318
251,526010.8891180742
266,0.0
821,10639789.083984424
2,1, 1, 1, 0,23, 0.00,60.00,Monday
12,5520333.817048438
24,136634.78396478998
103,1520425.3619911732
140,424767.33121036048
155,0.0
170,77310.93953372377
185,0.0
200,250723.79399162753
215,0.0
236,1782424.4160641244
251,449777.426927049
266,0.0
821,12019141.49169661
2,1, 1, 1, 0,24, 0.00,60.00,Monday
12,3653736.959379149
24,63480.3875582901
103,706388.1424039514
140,231691.27156928724
155,0.0
170,53151.2709294349
185,0.0
200,233628.98985583458
215,0.0
236,1510529.1661560375
251,381167.31095512627
266,0.0
821,14615298.356593255
2,2, 1, 2, 0, 1, 0.00,60.00,Tuesday
12,2750017.371129373
24,31520.721656648944
103,350751.86013675309
140,96538.02982053661
155,0.0
170,33823.53604600406
185,0.0
200,227930.72181057043
215,0.0
236,1208423.3329248299
251,304933.84876410107
266,0.0
821,15729726.948470604
2,2, 1, 2, 0, 2, 0.00,60.00,Tuesday
12,2445071.449203942
24,18912.432993989292
103,210451.11608205099
140,57922.81789232189
155,0.0
170,33823.53604600406
185,0.0
200,222232.45376530625
215,0.0
236,1117791.5829554678
251,282063.8101067935
266,0.0
821,16017274.166982795
2,2, 1, 2, 0, 3, 0.00,60.00,Tuesday
12,2333584.2311079327
24,12608.288662659528
103,140300.74405470069
140,38615.211928214565
155,0.0
170,19327.734883430905
185,0.0
200,216534.18572004169
215,0.0
236,1117791.5829554678
251,282063.8101067935
266,0.0
821,16239661.932398498
2,2, 1, 2, 0, 4, 0.00,60.00,Tuesday
12,2294541.4226570457
24,12608.288662659528
103,140300.74405470069
140,19307.60596410732
155,0.0
170,19327.734883430905
185,0.0
200,210835.9176747775
215,0.0
236,1087580.999632347
251,274440.4638876909
266,0.0
821,17423862.42977959
2,2, 1, 2, 0, 5, 0.00,60.00,Tuesday
12,2202802.72205339
24,14017.579698740728
103,155982.85494556168
140,38615.211928214565
155,0.0
170,33823.53604600406
185,0.0
200,205137.64962951334
215,0.0
236,996949.2496629846
251,251570.42523038339
266,0.0
821,16257752.73554448
2,2, 1, 2, 0, 6, 0.00,60.00,Tuesday
12,3787829.1292854377
24,38462.59422001201
103,427998.6548311974
140,57922.81789232189
155,0.0
170,53151.2709294349
185,0.0
200,205137.64962951334
215,0.0
236,1087580.999632347
251,274440.4638876909
266,0.0
821,16420443.766653149
2,2, 1, 2, 0, 7, 0.00,60.00,Tuesday
12,3699864.5459614775
24,90299.55374739846
103,1004822.6938274336
140,154460.8477128584
155,0.0
170,120798.34302144323
185,0.0
200,216534.18572004169
215,0.0
236,1299055.0828941924
251,327803.8874214086
266,0.0
821,15231833.742617019
2,2, 1, 2, 0, 8, 0.00,60.00,Tuesday
12,5537489.499014956
24,114271.75744381984
103,1271577.215811016
140,308921.6954257168
155,0.0
170,202941.21627602424
185,0.0
200,227930.72181057043
215,0.0
236,1419897.4161866753
251,358297.2722978187
266,0.0
821,13471489.380030998
2,2, 1, 2, 0, 9, 0.00,60.00,Tuesday
12,4104569.4912750429
24,121438.7837423188
103,1351329.444621973
140,463382.54313857536
155,0.0
170,222268.95115945536
185,0.0
200,233628.98985583458
215,0.0
236,1027159.8329861055
251,259193.77144948589
266,0.0
821,12249920.170026217
2,2, 1, 2, 0,10, 0.00,60.00,Tuesday
12,5100190.481106662
24,124830.57748974454
103,1389072.1707901357
140,656458.6027796477
155,0.0
170,231932.81860117054
185,0.0
200,233628.98985583458
215,0.0
236,694843.4164317773
251,175336.9630393581
266,0.0
821,8176392.521288671
2,2, 1, 2, 0,11, 0.00,60.00,Tuesday
12,5044391.955360983
24,121436.52005279417
103,1351304.25505556
140,752996.6326001843
155,0.0
170,202941.21627602424
185,0.0
200,227930.72181057043
215,0.0
236,725053.9997548979
251,182960.30925846063
266,0.0
821,4522982.51168633
2,2, 1, 2, 0,12, 0.00,60.00,Tuesday
12,4978443.723830448
24,116734.14550150292
103,1298977.8318571493
140,781958.0415463452
155,0.0
170,241596.68604288577
185,0.0
200,227930.72181057043
215,0.0
236,755264.5830780187
251,190583.65547756313
266,0.0
821,2601666.27734943
2,2, 1, 2, 0,13, 0.00,60.00,Tuesday
12,3724934.9322934627
24,113340.08806455229
103,1261209.916122571
140,714381.4206719695
155,0.0
170,275420.22208889006
185,0.0
200,239327.25790109879
215,0.0
236,725053.9997548979
251,182960.30925846063
266,0.0
821,1654194.5457075122
2,2, 1, 2, 0,14, 0.00,60.00,Tuesday
12,3738725.146654547
24,112341.33688407114
103,1250096.1529865785
140,646804.7997975946
155,0.0
170,222268.95115945536
185,0.0
200,239327.25790109879
215,0.0
236,845896.3330473809
251,213453.69413487073
266,0.0
821,1420056.6220657409
2,2, 1, 2, 0,15, 0.00,60.00,Tuesday
12,3624473.4707125055
24,114091.83433341766
103,1269575.0926888814
140,550266.7699770579
155,0.0
170,275420.22208889006
185,0.0
200,239327.25790109879
215,0.0
236,936528.0830167432
251,236323.73279217829
266,0.0
821,146325.84466413785
2,2, 1, 2, 0,16, 0.00,60.00,Tuesday
12,5132122.468724556
24,124772.48411455617
103,1388425.7274875076
140,588881.981905272
155,0.0
170,212605.08371773945
185,0.0
200,233628.98985583458
215,0.0
236,966738.6663398639
251,243947.07901128083
266,0.0
821,749888.8413940976
2,2, 1, 2, 0,17, 0.00,60.00,Tuesday
12,4773204.11671361
24,153230.21491511088
103,1705093.6680979355
140,530959.1640129502
155,0.0
170,444537.90231891
185,0.0
200,250723.79399162753
215,0.0
236,1178212.7496017093
251,297310.5025449985
266,0.0
821,1648939.7537891376
2,2, 1, 2, 0,18, 0.00,60.00,Tuesday
12,7386743.986529056
24,203210.06438551093
103,2261252.418587706
140,521305.36103089709
155,0.0
170,724790.058128658
185,0.0
200,273516.86617268456
215,0.0
236,1601160.9161253998
251,404037.3496124338
266,0.0
821,2594545.11059667
2,2, 1, 2, 0,19, 0.00,60.00,Tuesday
12,7008106.175907602
24,249271.51164091205
103,2773808.5231531264
140,492343.95208473617
155,0.0
170,565336.2453403532
185,0.0
200,284913.40226321297
215,0.0
236,1903266.749356607
251,480270.8118034591
266,0.0
821,3926019.8388718694
2,2, 1, 2, 0,20, 0.00,60.00,Tuesday
12,6930164.3656253539
24,252368.5332648852
103,2808271.1254794669
140,492343.95208473617
155,0.0
170,289916.02325146328
185,0.0
200,273516.86617268456
215,0.0
236,2024109.08264909
251,510764.1966798692
266,0.0
821,4920257.094441961
2,2, 1, 2, 0,21, 0.00,60.00,Tuesday
12,6476943.09465012
24,209519.52997124717
103,2331462.0037226008
140,501997.75506678936
155,0.0
170,169117.68023001997
185,0.0
200,267818.59812742008
215,0.0
236,2144951.415941573
251,541257.5815562792
266,0.0
821,6509871.0016771559
2,2, 1, 2, 0,22, 0.00,60.00,Tuesday
12,5748093.502659063
24,158078.74132085147
103,1759046.419378836
140,521305.36103089709
155,0.0
170,120798.34302144323
185,0.0
200,262120.3300821558
215,0.0
236,2084530.2492953318
251,526010.8891180742
266,0.0
821,6777824.690864025
2,2, 1, 2, 0,23, 0.00,60.00,Tuesday
12,4959945.541777151
24,136634.78396478998
103,1520425.3619911732
140,424767.33121036048
155,0.0
170,77310.93953372377
185,0.0
200,250723.79399162753
215,0.0
236,1782424.4160641244
251,449777.426927049
266,0.0
821,6861342.202657444
2,2, 1, 2, 0,24, 0.00,60.00,Tuesday
12,9666360.80670923
24,63480.3875582901
103,706388.1424039514
140,231691.27156928724
155,0.0
170,53151.2709294349
185,0.0
200,233628.98985583458
215,0.0
236,1510529.1661560375
251,381167.31095512627
266,0.0
821,8786392.414789243
2,3, 1, 3, 0, 1, 0.00,60.00,Wednesday
12,2636743.7852773417
24,31520.721656648944
103,350751.86013675309
140,96538.02982053661
155,0.0
170,33823.53604600406
185,0.0
200,227930.72181057043
215,0.0
236,1208423.3329248299
251,304933.84876410107
266,0.0
821,10092938.095993763
2,3, 1, 3, 0, 2, 0.00,60.00,Wednesday
12,2349452.852615627
24,18912.432993989292
103,210451.11608205099
140,57922.81789232189
155,0.0
170,33823.53604600406
185,0.0
200,222232.45376530625
215,0.0
236,1117791.5829554678
251,282063.8101067935
266,0.0
821,11259043.593770775
2,3, 1, 3, 0, 3, 0.00,60.00,Wednesday
12,2251045.3692045866
24,12608.288662659528
103,140300.74405470069
140,38615.211928214565
155,0.0
170,19327.734883430905
185,0.0
200,216534.18572004169
215,0.0
236,1117791.5829554678
251,282063.8101067935
266,0.0
821,12132313.046307225
2,3, 1, 3, 0, 4, 0.00,60.00,Wednesday
12,2208610.353706303
24,12608.288662659528
103,140300.74405470069
140,19307.60596410732
155,0.0
170,19327.734883430905
185,0.0
200,210835.9176747775
215,0.0
236,1087580.999632347
251,274440.4638876909
266,0.0
821,13147708.480034393
2,3, 1, 3, 0, 5, 0.00,60.00,Wednesday
12,3286979.9767902505
24,14017.579698740728
103,155982.85494556168
140,38615.211928214565
155,0.0
170,33823.53604600406
185,0.0
200,205137.64962951334
215,0.0
236,996949.2496629846
251,251570.42523038339
266,0.0
821,13821880.791365477
2,3, 1, 3, 0, 6, 0.00,60.00,Wednesday
12,2606008.88553234
24,38462.59422001201
103,427998.6548311974
140,57922.81789232189
155,0.0
170,53151.2709294349
185,0.0
200,205137.64962951334
215,0.0
236,1087580.999632347
251,274440.4638876909
266,0.0
821,13998939.439925543
2,3, 1, 3, 0, 7, 0.00,60.00,Wednesday
12,3657945.371178074
24,90299.55374739846
103,1004822.6938274336
140,154460.8477128584
155,0.0
170,120798.34302144323
185,0.0
200,216534.18572004169
215,0.0
236,1299055.0828941924
251,327803.8874214086
266,0.0
821,13145826.353102737
2,3, 1, 3, 0, 8, 0.00,60.00,Wednesday
12,4342350.313191078
24,114271.75744381984
103,1271577.215811016
140,308921.6954257168
155,0.0
170,202941.21627602424
185,0.0
200,227930.72181057043
215,0.0
236,1419897.4161866753
251,358297.2722978187
266,0.0
821,12864281.52495032
2,3, 1, 3, 0, 9, 0.00,60.00,Wednesday
12,4051579.568003707
24,121438.7837423188
103,1351329.444621973
140,463382.54313857536
155,0.0
170,222268.95115945536
185,0.0
200,233628.98985583458
215,0.0
236,1027159.8329861055
251,259193.77144948589
266,0.0
821,9613003.482497238
2,3, 1, 3, 0,10, 0.00,60.00,Wednesday
12,17617962.717117356
24,124830.57748974454
103,1389072.1707901357
140,656458.6027796477
155,0.0
170,231932.81860117054
185,0.0
200,233628.98985583458
215,0.0
236,694843.4164317773
251,175336.9630393581
266,0.0
821,8074237.026093507
2,3, 1, 3, 0,11, 0.00,60.00,Wednesday
12,12677258.162708885
24,121436.52005279417
103,1351304.25505556
140,752996.6326001843
155,0.0
170,202941.21627602424
185,0.0
200,227930.72181057043
215,0.0
236,725053.9997548979
251,182960.30925846063
266,0.0
821,5232883.817542061
2,3, 1, 3, 0,12, 0.00,60.00,Wednesday
12,5031594.58271146
24,116734.14550150292
103,1298977.8318571493
140,781958.0415463452
155,0.0
170,241596.68604288577
185,0.0
200,227930.72181057043
215,0.0
236,755264.5830780187
251,190583.65547756313
266,0.0
821,3557971.721266886
2,3, 1, 3, 0,13, 0.00,60.00,Wednesday
12,3763446.9695648818
24,113340.08806455229
103,1261209.916122571
140,714381.4206719695
155,0.0
170,275420.22208889006
185,0.0
200,239327.25790109879
215,0.0
236,725053.9997548979
251,182960.30925846063
266,0.0
821,3570653.892737295
2,3, 1, 3, 0,14, 0.00,60.00,Wednesday
12,3798106.0793034799
24,112341.33688407114
103,1250096.1529865785
140,646804.7997975946
155,0.0
170,222268.95115945536
185,0.0
200,239327.25790109879
215,0.0
236,845896.3330473809
251,213453.69413487073
266,0.0
821,4375006.592859657
2,3, 1, 3, 0,15, 0.00,60.00,Wednesday
12,3870753.8110603957
24,114091.83433341766
103,1269575.0926888814
140,550266.7699770579
155,0.0
170,275420.22208889006
185,0.0
200,239327.25790109879
215,0.0
236,936528.0830167432
251,236323.73279217829
266,0.0
821,3444608.32421237
2,3, 1, 3, 0,16, 0.00,60.00,Wednesday
12,5179778.351196895
24,124772.48411455617
103,1388425.7274875076
140,588881.981905272
155,0.0
170,212605.08371773945
185,0.0
200,233628.98985583458
215,0.0
236,966738.6663398639
251,243947.07901128083
266,0.0
821,5357626.25734992
2,3, 1, 3, 0,17, 0.00,60.00,Wednesday
12,4884848.311368564
24,153230.21491511088
103,1705093.6680979355
140,530959.1640129502
155,0.0
170,444537.90231891
185,0.0
200,250723.79399162753
215,0.0
236,1178212.7496017093
251,297310.5025449985
266,0.0
821,7204645.853681434
2,3, 1, 3, 0,18, 0.00,60.00,Wednesday
12,6339038.993188089
24,203210.06438551093
103,2261252.418587706
140,521305.36103089709
155,0.0
170,724790.058128658
185,0.0
200,273516.86617268456
215,0.0
236,1601160.9161253998
251,404037.3496124338
266,0.0
821,8447996.581369628
2,3, 1, 3, 0,19, 0.00,60.00,Wednesday
12,8302612.238989943
24,249271.51164091205
103,2773808.5231531264
140,492343.95208473617
155,0.0
170,565336.2453403532
185,0.0
200,284913.40226321297
215,0.0
236,1903266.749356607
251,480270.8118034591
266,0.0
821,8500674.545606453
2,3, 1, 3, 0,20, 0.00,60.00,Wednesday
12,17274117.933810664
24,252368.5332648852
103,2808271.1254794669
140,492343.95208473617
155,0.0
170,289916.02325146328
185,3651929.4149225719
200,273516.86617268456
215,0.0
236,2024109.08264909
251,510764.1966798692
266,0.0
821,9202466.308344946
2,3, 1, 3, 0,21, 0.00,60.00,Wednesday
12,6579378.721001418
24,209519.52997124717
103,2331462.0037226008
140,501997.75506678936
155,0.0
170,169117.68023001997
185,0.0
200,267818.59812742008
215,0.0
236,2144951.415941573
251,541257.5815562792
266,0.0
821,11607334.742851098
2,3, 1, 3, 0,22, 0.00,60.00,Wednesday
12,5882530.017651574
24,158078.74132085147
103,1759046.419378836
140,521305.36103089709
155,0.0
170,120798.34302144323
185,0.0
200,262120.3300821558
215,0.0
236,2084530.2492953318
251,526010.8891180742
266,0.0
821,13467736.053478789
2,3, 1, 3, 0,23, 0.00,60.00,Wednesday
12,6295447.633246284
24,136634.78396478998
103,1520425.3619911732
140,424767.33121036048
155,0.0
170,77310.93953372377
185,0.0
200,250723.79399162753
215,0.0
236,1782424.4160641244
251,449777.426927049
266,0.0
821,15656582.878045209
2,3, 1, 3, 0,24, 0.00,60.00,Wednesday
12,3715373.5088867887
24,63480.3875582901
103,706388.1424039514
140,231691.27156928724
155,0.0
170,53151.2709294349
185,0.0
200,233628.98985583458
215,0.0
236,1510529.1661560375
251,381167.31095512627
266,0.0
821,17682493.701001694
2,4, 1, 4, 0, 1, 0.00,60.00,Thursday
12,2824947.14172685
24,31520.721656648944
103,350751.86013675309
140,96538.02982053661
155,0.0
170,33823.53604600406
185,0.0
200,227930.72181057043
215,0.0
236,1208423.3329248299
251,304933.84876410107
266,0.0
821,19458427.61990725
2,4, 1, 4, 0, 2, 0.00,60.00,Thursday
12,3738137.082385283
24,18912.432993989292
103,210451.11608205099
140,57922.81789232189
155,0.0
170,33823.53604600406
185,0.0
200,222232.45376530625
215,0.0
236,1117791.5829554678
251,282063.8101067935
266,0.0
821,22247661.15589819
2,4, 1, 4, 0, 3, 0.00,60.00,Thursday
12,2474955.3491952598
24,12608.288662659528
103,140300.74405470069
140,38615.211928214565
155,0.0
170,19327.734883430905
185,0.0
200,216534.18572004169
215,0.0
236,1117791.5829554678
251,282063.8101067935
266,0.0
821,23274657.218393875
2,4, 1, 4, 0, 4, 0.00,60.00,Thursday
12,2412795.443809999
24,12608.288662659528
103,140300.74405470069
140,19307.60596410732
155,0.0
170,19327.734883430905
185,0.0
200,210835.9176747775
215,0.0
236,1087580.999632347
251,274440.4638876909
266,0.0
821,23308490.72314243
2,4, 1, 4, 0, 5, 0.00,60.00,Thursday
12,3518042.0715133857
24,14017.579698740728
103,155982.85494556168
140,38615.211928214565
155,0.0
170,33823.53604600406
185,0.0
200,205137.64962951334
215,0.0
236,996949.2496629846
251,251570.42523038339
266,0.0
821,23529638.385554129
2,4, 1, 4, 0, 6, 0.00,60.00,Thursday
12,2790703.453774989
24,38462.59422001201
103,427998.6548311974
140,57922.81789232189
155,0.0
170,53151.2709294349
185,0.0
200,205137.64962951334
215,0.0
236,1087580.999632347
251,274440.4638876909
266,0.0
821,23189822.51784937
2,4, 1, 4, 0, 7, 0.00,60.00,Thursday
12,3834059.0984980768
24,90299.55374739846
103,1004822.6938274336
140,154460.8477128584
155,0.0
170,120798.34302144323
185,0.0
200,216534.18572004169
215,0.0
236,1299055.0828941924
251,327803.8874214086
266,0.0
821,21909704.4228084
2,4, 1, 4, 0, 8, 0.00,60.00,Thursday
12,5654483.039502277
24,114271.75744381984
103,1271577.215811016
140,308921.6954257168
155,0.0
170,202941.21627602424
185,0.0
200,227930.72181057043
215,0.0
236,1419897.4161866753
251,358297.2722978187
266,0.0
821,19187788.48049118
2,4, 1, 4, 0, 9, 0.00,60.00,Thursday
12,14902905.967168883
24,121438.7837423188
103,1351329.444621973
140,463382.54313857536
155,0.0
170,222268.95115945536
185,0.0
200,233628.98985583458
215,0.0
236,1027159.8329861055
251,259193.77144948589
266,0.0
821,17426286.88777287
2,4, 1, 4, 0,10, 0.00,60.00,Thursday
12,6463269.550186044
24,124830.57748974454
103,1389072.1707901357
140,656458.6027796477
155,0.0
170,231932.81860117054
185,0.0
200,233628.98985583458
215,0.0
236,694843.4164317773
251,175336.9630393581
266,0.0
821,13717579.375027243
2,4, 1, 4, 0,11, 0.00,60.00,Thursday
12,5113203.031522057
24,121436.52005279417
103,1351304.25505556
140,752996.6326001843
155,0.0
170,202941.21627602424
185,0.0
200,227930.72181057043
215,0.0
236,725053.9997548979
251,182960.30925846063
266,0.0
821,11617516.96017206
2,4, 1, 4, 0,12, 0.00,60.00,Thursday
12,8656714.566518221
24,116734.14550150292
103,1298977.8318571493
140,781958.0415463452
155,0.0
170,241596.68604288577
185,0.0
200,227930.72181057043
215,0.0
236,755264.5830780187
251,190583.65547756313
266,0.0
821,10821400.349664083
2,4, 1, 4, 0,13, 0.00,60.00,Thursday
12,3867865.9993094268
24,113340.08806455229
103,1261209.916122571
140,714381.4206719695
155,0.0
170,275420.22208889006
185,0.0
200,239327.25790109879
215,0.0
236,725053.9997548979
251,182960.30925846063
266,0.0
821,8766816.956025223
2,4, 1, 4, 0,14, 0.00,60.00,Thursday
12,3864002.7594709938
24,112341.33688407114
103,1250096.1529865785
140,646804.7997975946
155,0.0
170,222268.95115945536
185,0.0
200,239327.25790109879
215,0.0
236,845896.3330473809
251,213453.69413487073
266,0.0
821,7654197.14191398
2,4, 1, 4, 0,15, 0.00,60.00,Thursday
12,4930802.683292957
24,114091.83433341766
103,1269575.0926888814
140,550266.7699770579
155,0.0
170,275420.22208889006
185,0.0
200,239327.25790109879
215,0.0
236,936528.0830167432
251,236323.73279217829
266,0.0
821,6398163.912644138
2,4, 1, 4, 0,16, 0.00,60.00,Thursday
12,5066701.403877124
24,124772.48411455617
103,1388425.7274875076
140,588881.981905272
155,0.0
170,212605.08371773945
185,0.0
200,233628.98985583458
215,0.0
236,966738.6663398639
251,243947.07901128083
266,0.0
821,6989944.981944769
2,4, 1, 4, 0,17, 0.00,60.00,Thursday
12,4869024.391699567
24,153230.21491511088
103,1705093.6680979355
140,530959.1640129502
155,0.0
170,444537.90231891
185,0.0
200,250723.79399162753
215,0.0
236,1178212.7496017093
251,297310.5025449985
266,0.0
821,6417206.369694366
2,4, 1, 4, 0,18, 0.00,60.00,Thursday
12,7457446.678858993
24,203210.06438551093
103,2261252.418587706
140,521305.36103089709
155,0.0
170,724790.058128658
185,0.0
200,273516.86617268456
215,0.0
236,1601160.9161253998
251,404037.3496124338
266,0.0
821,5894841.184074284
2,4, 1, 4, 0,19, 0.00,60.00,Thursday
12,7042544.800622775
24,249271.51164091205
103,2773808.5231531264
140,492343.95208473617
155,0.0
170,565336.2453403532
185,0.0
200,284913.40226321297
215,0.0
236,1903266.749356607
251,480270.8118034591
266,0.0
821,5639775.560728353
2,4, 1, 4, 0,20, 0.00,60.00,Thursday
12,9530188.03513184
24,252368.5332648852
103,2808271.1254794669
140,492343.95208473617
155,0.0
170,289916.02325146328
185,0.0
200,273516.86617268456
215,0.0
236,2024109.08264909
251,510764.1966798692
266,0.0
821,5102530.444636686
2,4, 1, 4, 0,21, 0.00,60.00,Thursday
12,6458981.431183992
24,209519.52997124717
103,2331462.0037226008
140,501997.75506678936
155,0.0
170,169117.68023001997
185,0.0
200,267818.59812742008
215,0.0
236,2144951.415941573
251,541257.5815562792
266,0.0
821,5616051.814827495
2,4, 1, 4, 0,22, 0.00,60.00,Thursday
12,5731530.6007101139
24,158078.74132085147
103,1759046.419378836
140,521305.36103089709
155,0.0
170,120798.34302144323
185,0.0
200,262120.3300821558
215,0.0
236,2084530.2492953318
251,526010.8891180742
266,0.0
821,5953611.522646147
2,4, 1, 4, 0,23, 0.00,60.00,Thursday
12,6169190.43954871
24,136634.78396478998
103,1520425.3619911732
140,424767.33121036048
155,0.0
170,77310.93953372377
185,0.0
200,250723.79399162753
215,0.0
236,1782424.4160641244
251,449777.426927049
266,0.0
821,6740064.872692317
2,4, 1, 4, 0,24, 0.00,60.00,Thursday
12,3303761.5196173887
24,63480.3875582901
103,706388.1424039514
140,231691.27156928724
155,0.0
170,53151.2709294349
185,0.0
200,233628.98985583458
215,0.0
236,1510529.1661560375
251,381167.31095512627
266,0.0
821,6156877.473762538
2,5, 1, 5, 0, 1, 0.00,60.00,Friday
12,3746624.0623108588
24,31520.721656648944
103,350751.86013675309
140,96538.02982053661
155,0.0
170,33823.53604600406
185,0.0
200,227930.72181057043
215,0.0
236,1208423.3329248299
251,304933.84876410107
266,0.0
821,8204018.424047542
2,5, 1, 5, 0, 2, 0.00,60.00,Friday
12,2079318.9591708992
24,18912.432993989292
103,210451.11608205099
140,57922.81789232189
155,0.0
170,33823.53604600406
185,0.0
200,222232.45376530625
215,0.0
236,1117791.5829554678
251,282063.8101067935
266,0.0
821,6773746.14354914
2,5, 1, 5, 0, 3, 0.00,60.00,Friday
12,1962036.93033116
24,12608.288662659528
103,140300.74405470069
140,38615.211928214565
155,0.0
170,19327.734883430905
185,0.0
200,216534.18572004169
215,0.0
236,1117791.5829554678
251,282063.8101067935
266,0.0
821,6707769.023570133
2,5, 1, 5, 0, 4, 0.00,60.00,Friday
12,2087261.6892747367
24,12608.288662659528
103,140300.74405470069
140,19307.60596410732
155,0.0
170,19327.734883430905
185,0.0