Program Version,EnergyPlus, Version 9.1.0-fafb9d5652, YMD=2019.09.26 13:40
1,5,Environment Title[],Latitude[deg],Longitude[deg],Time Zone[],Elevation[m]
2,8,Day of Simulation[],Month[],Day of Month[],DST Indicator[1=yes 0=no],Hour[],StartMinute[],EndMinute[],DayType
3,5,Cumulative Day of Simulation[],Month[],Day of Month[],DST Indicator[1=yes 0=no],DayType  ! When Daily Report Variables Requested
4,2,Cumulative Days of Simulation[],Month[]  ! When Monthly Report Variables Requested
5,1,Cumulative Days of Simulation[] ! When Run Period Report Variables Requested
6,1,Calendar Year of Simulation[] ! When Annual Report Variables Requested
276,11,EMS,central ac supply fan Cooling [J] !RunPeriod [Value,Min,Month,Day,Hour,Minute,Max,Month,Day,Hour,Minute]
277,11,EMS,furnace supply fan Heating [J] !RunPeriod [Value,Min,Month,Day,Hour,Minute,Max,Month,Day,Hour,Minute]
278,11,EMS,water heater EC adjustment [J] !RunPeriod [Value,Min,Month,Day,Hour,Minute,Max,Month,Day,Hour,Minute]
279,1,LIVING,Zone Mean Air Temperature [C] !Hourly
280,1,VENTED ATTIC,Zone Mean Air Temperature [C] !Hourly
544,11,CENTRAL AC CLG COIL,Cooling Coil Electric Energy [J] !RunPeriod [Value,Min,Month,Day,Hour,Minute,Max,Month,Day,Hour,Minute]
570,11,FURNACE HTG COIL,Heating Coil Gas Energy [J] !RunPeriod [Value,Min,Month,Day,Hour,Minute,Max,Month,Day,Hour,Minute]
835,11,WATER USE CONNECTIONS 1,Water Use Connections Plant Hot Water Energy [J] !RunPeriod [Value,Min,Month,Day,Hour,Minute,Max,Month,Day,Hour,Minute]
886,11,WATER HEATER,Water Heater Electric Energy [J] !RunPeriod [Value,Min,Month,Day,Hour,Minute,Max,Month,Day,Hour,Minute]
924,11,WATER HEATER,Water Heater Off Cycle Parasitic Electric Energy [J] !RunPeriod [Value,Min,Month,Day,Hour,Minute,Max,Month,Day,Hour,Minute]
926,11,WATER HEATER,Water Heater On Cycle Parasitic Electric Energy [J] !RunPeriod [Value,Min,Month,Day,Hour,Minute,Max,Month,Day,Hour,Minute]
1089,11,CENTRAL AC CLG COIL,Cooling Coil Crankcase Heater Electric Energy [J] !RunPeriod [Value,Min,Month,Day,Hour,Minute,Max,Month,Day,Hour,Minute]
End of Data Dictionary
1,RUN PERIOD 1,  39.83,-104.65,  -7.00,1650.00
2,1, 1, 1, 0, 1, 0.00,60.00,Monday
279,20.008641821270353
280,-13.055429639177547
2,1, 1, 1, 0, 2, 0.00,60.00,Monday
279,20.000222812597668
280,-13.463826891022182
2,1, 1, 1, 0, 3, 0.00,60.00,Monday
279,20.00000701507963
280,-13.838512878910987
2,1, 1, 1, 0, 4, 0.00,60.00,Monday
279,20.000000274160873
280,-14.828601338090197
2,1, 1, 1, 0, 5, 0.00,60.00,Monday
279,20.000000011865578
280,-14.994410360863796
2,1, 1, 1, 0, 6, 0.00,60.00,Monday
279,20.000000000534827
280,-14.277803680998144
2,1, 1, 1, 0, 7, 0.00,60.00,Monday
279,20.000000000024245
280,-13.392057766615045
2,1, 1, 1, 0, 8, 0.00,60.00,Monday
279,20.00000000000114
280,-8.906120383832692
2,1, 1, 1, 0, 9, 0.00,60.00,Monday
279,20.00000000000004
280,-6.971178787374731
2,1, 1, 1, 0,10, 0.00,60.00,Monday
279,20.000000000000044
280,-3.195384811932362
2,1, 1, 1, 0,11, 0.00,60.00,Monday
279,20.0
280,0.38816343190377197
2,1, 1, 1, 0,12, 0.00,60.00,Monday
279,20.00000000000001
280,2.550465815825377
2,1, 1, 1, 0,13, 0.00,60.00,Monday
279,19.99999999999999
280,4.294585902607233
2,1, 1, 1, 0,14, 0.00,60.00,Monday
279,19.999999999999998
280,3.307493570366141
2,1, 1, 1, 0,15, 0.00,60.00,Monday
279,19.999999999999998
280,3.876804325594839
2,1, 1, 1, 0,16, 0.00,60.00,Monday
279,20.0
280,2.2181371555520075
2,1, 1, 1, 0,17, 0.00,60.00,Monday
279,20.0
280,-0.4078750233341679
2,1, 1, 1, 0,18, 0.00,60.00,Monday
279,20.000000000000033
280,-2.1030943020208294
2,1, 1, 1, 0,19, 0.00,60.00,Monday
279,20.000000000000076
280,-4.839971807419321
2,1, 1, 1, 0,20, 0.00,60.00,Monday
279,20.000000000000168
280,-5.517087098093534
2,1, 1, 1, 0,21, 0.00,60.00,Monday
279,20.00000000000009
280,-5.9813281193611129
2,1, 1, 1, 0,22, 0.00,60.00,Monday
279,20.000000000000047
280,-6.141948911455234
2,1, 1, 1, 0,23, 0.00,60.00,Monday
279,20.000000000000094
280,-6.162280705863041
2,1, 1, 1, 0,24, 0.00,60.00,Monday
279,20.00000000000003
280,-5.066704731289795
2,2, 1, 2, 0, 1, 0.00,60.00,Tuesday
279,19.99999999999989
280,-5.039790681462514
2,2, 1, 2, 0, 2, 0.00,60.00,Tuesday
279,20.000000000000019
280,-5.612756446918655
2,2, 1, 2, 0, 3, 0.00,60.00,Tuesday
279,19.999999999999909
280,-5.044815710403511
2,2, 1, 2, 0, 4, 0.00,60.00,Tuesday
279,20.000000000000119
280,-6.675722740405409
2,2, 1, 2, 0, 5, 0.00,60.00,Tuesday
279,20.000000000000119
280,-5.671957438247473
2,2, 1, 2, 0, 6, 0.00,60.00,Tuesday
279,20.00000000000005
280,-6.178583023691185
2,2, 1, 2, 0, 7, 0.00,60.00,Tuesday
279,20.00000000000004
280,-4.658431158622301
2,2, 1, 2, 0, 8, 0.00,60.00,Tuesday
279,20.000000000000026
280,-3.4433993015451458
2,2, 1, 2, 0, 9, 0.00,60.00,Tuesday
279,20.00000000000005
280,-2.1592865220703816
2,2, 1, 2, 0,10, 0.00,60.00,Tuesday
279,20.00000000000001
280,1.5011711207789973
2,2, 1, 2, 0,11, 0.00,60.00,Tuesday
279,20.00000000000001
280,4.9122912857404918
2,2, 1, 2, 0,12, 0.00,60.00,Tuesday
279,20.0
280,8.105818835051885
2,2, 1, 2, 0,13, 0.00,60.00,Tuesday
279,20.000000000000005
280,9.091599656616254
2,2, 1, 2, 0,14, 0.00,60.00,Tuesday
279,19.999999999999998
280,9.359104653060394
2,2, 1, 2, 0,15, 0.00,60.00,Tuesday
279,20.019060868856206
280,9.983351657953076
2,2, 1, 2, 0,16, 0.00,60.00,Tuesday
279,20.000080398332579
280,7.899381888686962
2,2, 1, 2, 0,17, 0.00,60.00,Tuesday
279,20.000000775453587
280,6.812291416434732
2,2, 1, 2, 0,18, 0.00,60.00,Tuesday
279,20.000000011266449
280,5.097006480494405
2,2, 1, 2, 0,19, 0.00,60.00,Tuesday
279,20.00000000025772
280,1.3406654240992782
2,2, 1, 2, 0,20, 0.00,60.00,Tuesday
279,20.00000000000665
280,0.14033056307279155
2,2, 1, 2, 0,21, 0.00,60.00,Tuesday
279,20.000000000000197
280,-1.5691773631697846
2,2, 1, 2, 0,22, 0.00,60.00,Tuesday
279,19.99999999999994
280,-1.1172595006581574
2,2, 1, 2, 0,23, 0.00,60.00,Tuesday
279,20.000000000000055
280,-1.7010252578236956
2,2, 1, 2, 0,24, 0.00,60.00,Tuesday
279,20.000000000000033
280,-0.35780104543585908
2,3, 1, 3, 0, 1, 0.00,60.00,Wednesday
279,20.000000000000005
280,-0.7567212594714521
2,3, 1, 3, 0, 2, 0.00,60.00,Wednesday
279,20.00000000000001
280,-0.7096066524434345
2,3, 1, 3, 0, 3, 0.00,60.00,Wednesday
279,20.000000000000087
280,-1.1718907895106783
2,3, 1, 3, 0, 4, 0.00,60.00,Wednesday
279,20.0000000000001
280,-1.7450936833481897
2,3, 1, 3, 0, 5, 0.00,60.00,Wednesday
279,20.000000000000019
280,-1.7552458606882014
2,3, 1, 3, 0, 6, 0.00,60.00,Wednesday
279,20.00000000000006
280,-1.1733357691055646
2,3, 1, 3, 0, 7, 0.00,60.00,Wednesday
279,20.000000000000005
280,-1.1699336417952029
2,3, 1, 3, 0, 8, 0.00,60.00,Wednesday
279,20.000000000000087
280,-0.6707935760246758
2,3, 1, 3, 0, 9, 0.00,60.00,Wednesday
279,20.000000000000005
280,3.038100976633988
2,3, 1, 3, 0,10, 0.00,60.00,Wednesday
279,20.000000000000015
280,5.342714328189632
2,3, 1, 3, 0,11, 0.00,60.00,Wednesday
279,20.0
280,5.685951640830987
2,3, 1, 3, 0,12, 0.00,60.00,Wednesday
279,20.000000000000019
280,6.618623151412875
2,3, 1, 3, 0,13, 0.00,60.00,Wednesday
279,20.000000000000005
280,5.598293677835303
2,3, 1, 3, 0,14, 0.00,60.00,Wednesday
279,20.000000000000047
280,4.599833306818145
2,3, 1, 3, 0,15, 0.00,60.00,Wednesday
279,20.000000000000037
280,2.375592029301062
2,3, 1, 3, 0,16, 0.00,60.00,Wednesday
279,20.00000000000003
280,-0.14548113044437675
2,3, 1, 3, 0,17, 0.00,60.00,Wednesday
279,20.000000000000097
280,-2.7264831570556549
2,3, 1, 3, 0,18, 0.00,60.00,Wednesday
279,20.000000000000005
280,-5.341925477212119
2,3, 1, 3, 0,19, 0.00,60.00,Wednesday
279,19.999999999999998
280,-5.37909058248352
2,3, 1, 3, 0,20, 0.00,60.00,Wednesday
279,20.000000000000005
280,-6.409169775583324
2,3, 1, 3, 0,21, 0.00,60.00,Wednesday
279,20.000000000000076
280,-8.243614220290864
2,3, 1, 3, 0,22, 0.00,60.00,Wednesday
279,20.000000000000119
280,-9.628637050592803
2,3, 1, 3, 0,23, 0.00,60.00,Wednesday
279,20.000000000000037
280,-11.071414258399618
2,3, 1, 3, 0,24, 0.00,60.00,Wednesday
279,20.000000000000079
280,-12.143284950070625
2,4, 1, 4, 0, 1, 0.00,60.00,Thursday
279,19.99999999999986
280,-12.459190650422073
2,4, 1, 4, 0, 2, 0.00,60.00,Thursday
279,19.999999999999905
280,-13.893120504276439
2,4, 1, 4, 0, 3, 0.00,60.00,Thursday
279,19.999999999999994
280,-15.795185196647779
2,4, 1, 4, 0, 4, 0.00,60.00,Thursday
279,20.000000000000015
280,-14.738037602036546
2,4, 1, 4, 0, 5, 0.00,60.00,Thursday
279,20.000000000000168
280,-14.40451965724059
2,4, 1, 4, 0, 6, 0.00,60.00,Thursday
279,19.99999999999999
280,-13.699421911271532
2,4, 1, 4, 0, 7, 0.00,60.00,Thursday
279,20.00000000000002
280,-14.565911801006765
2,4, 1, 4, 0, 8, 0.00,60.00,Thursday
279,20.000000000000015
280,-13.32198409550873
2,4, 1, 4, 0, 9, 0.00,60.00,Thursday
279,20.00000000000006
280,-10.923787484020267
2,4, 1, 4, 0,10, 0.00,60.00,Thursday
279,20.000000000000094
280,-2.5781220781161298
2,4, 1, 4, 0,11, 0.00,60.00,Thursday
279,20.000000000000079
280,1.9439727025709482
2,4, 1, 4, 0,12, 0.00,60.00,Thursday
279,20.000000000000005
280,2.112234469539316
2,4, 1, 4, 0,13, 0.00,60.00,Thursday
279,19.999999999999934
280,7.722384297300647
2,4, 1, 4, 0,14, 0.00,60.00,Thursday
279,20.000000000000015
280,9.437527980769249
2,4, 1, 4, 0,15, 0.00,60.00,Thursday
279,20.000000000000005
280,10.917596519778887
2,4, 1, 4, 0,16, 0.00,60.00,Thursday
279,20.000000000000065
280,9.983484459623293
2,4, 1, 4, 0,17, 0.00,60.00,Thursday
279,20.000000000000005
280,7.976249590479582
2,4, 1, 4, 0,18, 0.00,60.00,Thursday
279,20.0
280,7.191452303138407
2,4, 1, 4, 0,19, 0.00,60.00,Thursday
279,20.0
280,6.101839144406817
2,4, 1, 4, 0,20, 0.00,60.00,Thursday
279,20.000000000000005
280,6.999281470383713
2,4, 1, 4, 0,21, 0.00,60.00,Thursday
279,20.000000000000044
280,6.040735725265003
2,4, 1, 4, 0,22, 0.00,60.00,Thursday
279,19.999999999999976
280,5.506400161297129
2,4, 1, 4, 0,23, 0.00,60.00,Thursday
279,20.00000000000001
280,4.912652651184229
2,4, 1, 4, 0,24, 0.00,60.00,Thursday
279,20.000000000000058
280,9.752648360626744
2,5, 1, 5, 0, 1, 0.00,60.00,Friday
279,20.000000000000076
280,5.151726442248789
2,5, 1, 5, 0, 2, 0.00,60.00,Friday
279,20.000000000000005
280,10.313069696885256
2,5, 1, 5, 0, 3, 0.00,60.00,Friday
279,19.999999999999969
280,10.903864182234362
2,5, 1, 5, 0, 4, 0.00,60.00,Friday
279,20.00000000000002
280,9.319040798833078
2,5, 1, 5, 0, 5, 0.00,60.00,Friday
279,20.00000000000003
280,9.25597905864646
2,5, 1, 5, 0, 6, 0.00,60.00,Friday
279,19.99999999999999
280,9.270581039462505
2,5, 1, 5, 0, 7, 0.00,60.00,Friday
279,20.000000000000065
280,5.128401373796324
2,5, 1, 5, 0, 8, 0.00,60.00,Friday
279,20.000000000000033
280,9.069710262508908
2,5, 1, 5, 0, 9, 0.00,60.00,Friday
279,20.000000000000044
280,8.736437077149747
2,5, 1, 5, 0,10, 0.00,60.00,Friday
279,20.06627909117853
280,12.438011354215007
2,5, 1, 5, 0,11, 0.00,60.00,Friday
279,20.000208255295033
280,12.639091021669163
2,5, 1, 5, 0,12, 0.00,60.00,Friday
279,20.29548086285449
280,14.768682176069142
2,5, 1, 5, 0,13, 0.00,60.00,Friday
279,20.488542028101699
280,14.3109820091452
2,5, 1, 5, 0,14, 0.00,60.00,Friday
279,20.525822694617177
280,12.818420335356596
2,5, 1, 5, 0,15, 0.00,60.00,Friday
279,20.3985684913268
280,10.148462362423795
2,5, 1, 5, 0,16, 0.00,60.00,Friday
279,20.255070196713125
280,8.546884065873768
2,5, 1, 5, 0,17, 0.00,60.00,Friday
279,20.000937150979497
280,5.912352902146969
2,5, 1, 5, 0,18, 0.00,60.00,Friday
279,20.000009267840026
280,5.6610410420291379
2,5, 1, 5, 0,19, 0.00,60.00,Friday
279,20.000000124116878
280,3.984810788830926
2,5, 1, 5, 0,20, 0.00,60.00,Friday
279,20.000000002289977
280,3.3263659811428796
2,5, 1, 5, 0,21, 0.00,60.00,Friday
279,20.00000000006176
280,1.7671469521702788
2,5, 1, 5, 0,22, 0.00,60.00,Friday
279,20.000000000001827
280,0.19920518714278349
2,5, 1, 5, 0,23, 0.00,60.00,Friday
279,20.000000000000055
280,0.5486841416726644
2,5, 1, 5, 0,24, 0.00,60.00,Friday
279,20.000000000000008
280,-0.04343507000964949
2,6, 1, 6, 0, 1, 0.00,60.00,Saturday
279,20.00000000000006
280,-0.05826311057284569
2,6, 1, 6, 0, 2, 0.00,60.00,Saturday
279,20.00000000000006
280,0.9691361789421732
2,6, 1, 6, 0, 3, 0.00,60.00,Saturday
279,19.999999999999994
280,0.5258946673053199
2,6, 1, 6, 0, 4, 0.00,60.00,Saturday
279,19.999999999999998
280,-0.026914363767006359
2,6, 1, 6, 0, 5, 0.00,60.00,Saturday
279,20.0
280,-0.648414870140925
2,6, 1, 6, 0, 6, 0.00,60.00,Saturday
279,20.000000000000097
280,-0.16063806530388789
2,6, 1, 6, 0, 7, 0.00,60.00,Saturday
279,20.000000000000115
280,-0.6835882427370231
2,6, 1, 6, 0, 8, 0.00,60.00,Saturday
279,20.00000000000005
280,-0.673114665868636
2,6, 1, 6, 0, 9, 0.00,60.00,Saturday
279,20.00000000000004
280,-0.6658871947521945
2,6, 1, 6, 0,10, 0.00,60.00,Saturday
279,20.000000000000069
280,-0.06662390609529272
2,6, 1, 6, 0,11, 0.00,60.00,Saturday
279,20.000000000000047
280,-0.053314460091634287
2,6, 1, 6, 0,12, 0.00,60.00,Saturday
279,20.000000000000037
280,1.0107536170194403
2,6, 1, 6, 0,13, 0.00,60.00,Saturday
279,20.0
280,1.6627943463367639
2,6, 1, 6, 0,14, 0.00,60.00,Saturday
279,20.00000000000001
280,1.0938194617069768
2,6, 1, 6, 0,15, 0.00,60.00,Saturday
279,20.000000000000047
280,1.6732812085592893
2,6, 1, 6, 0,16, 0.00,60.00,Saturday
279,20.00000000000005
280,0.6043310207037116
2,6, 1, 6, 0,17, 0.00,60.00,Saturday
279,20.000000000000005
280,-0.5802217590767523
2,6, 1, 6, 0,18, 0.00,60.00,Saturday
279,20.000000000000005
280,-1.6568046857069814
2,6, 1, 6, 0,19, 0.00,60.00,Saturday
279,20.000000000000044
280,-3.215507460493583
2,6, 1, 6, 0,20, 0.00,60.00,Saturday
279,20.000000000000005
280,-4.343245071690183
2,6, 1, 6, 0,21, 0.00,60.00,Saturday
279,19.99999999999999
280,-5.813630175409807
2,6, 1, 6, 0,22, 0.00,60.00,Saturday
279,20.000000000000005
280,-7.584132889612987
2,6, 1, 6, 0,23, 0.00,60.00,Saturday
279,20.000000000000065
280,-7.6942955565672739
2,6, 1, 6, 0,24, 0.00,60.00,Saturday
279,20.0000000000001
280,-8.773346943334556
2,7, 1, 7, 0, 1, 0.00,60.00,Sunday
279,20.00000000000013
280,-8.857631774650848
2,7, 1, 7, 0, 2, 0.00,60.00,Sunday
279,20.00000000000004
280,-8.325230020334838
2,7, 1, 7, 0, 3, 0.00,60.00,Sunday
279,20.000000000000204
280,-10.453925209665469
2,7, 1, 7, 0, 4, 0.00,60.00,Sunday
279,20.00000000000021
280,-11.814253744053538
2,7, 1, 7, 0, 5, 0.00,60.00,Sunday
279,19.999999999999987
280,-11.948741642576105
2,7, 1, 7, 0, 6, 0.00,60.00,Sunday
279,20.0
280,-12.726607255678106
2,7, 1, 7, 0, 7, 0.00,60.00,Sunday
279,20.000000000000008
280,-12.767392828548479
2,7, 1, 7, 0, 8, 0.00,60.00,Sunday
279,20.000000000000104
280,-3.57352226541821
2,7, 1, 7, 0, 9, 0.00,60.00,Sunday
279,20.00000000000006
280,-1.1407867096861582
2,7, 1, 7, 0,10, 0.00,60.00,Sunday
279,20.000000000000019
280,0.22985564832967776
2,7, 1, 7, 0,11, 0.00,60.00,Sunday
279,19.999999999999916
280,2.177429971384023
2,7, 1, 7, 0,12, 0.00,60.00,Sunday
279,19.999999999999927
280,4.585793564777802
2,7, 1, 7, 0,13, 0.00,60.00,Sunday
279,19.99999999999996
280,5.429844861349637
2,7, 1, 7, 0,14, 0.00,60.00,Sunday
279,20.000000000000005
280,5.038884826489126
2,7, 1, 7, 0,15, 0.00,60.00,Sunday
279,20.000000000000069
280,5.01284715142468
2,7, 1, 7, 0,16, 0.00,60.00,Sunday
279,20.0
280,4.474653102640696
2,7, 1, 7, 0,17, 0.00,60.00,Sunday
279,19.999999999999998
280,4.959484166500924
2,7, 1, 7, 0,18, 0.00,60.00,Sunday
279,20.000000000000058
280,5.52992173225629
2,7, 1, 7, 0,19, 0.00,60.00,Sunday
279,20.0
280,4.946051172131994
2,7, 1, 7, 0,20, 0.00,60.00,Sunday
279,20.000000000000005
280,4.363471414593238
2,7, 1, 7, 0,21, 0.00,60.00,Sunday
279,20.0
280,2.251216003117278
2,7, 1, 7, 0,22, 0.00,60.00,Sunday
279,20.000000000000069
280,-0.4124293461361516
2,7, 1, 7, 0,23, 0.00,60.00,Sunday
279,19.999999999999944
280,-0.008105158154705491
2,7, 1, 7, 0,24, 0.00,60.00,Sunday
279,20.00000000000007
280,1.555241855998217
2,8, 1, 8, 0, 1, 0.00,60.00,Monday
279,19.99999999999999
280,1.6184708714604386
2,8, 1, 8, 0, 2, 0.00,60.00,Monday
279,19.999999999999934
280,1.0658011223729585
2,8, 1, 8, 0, 3, 0.00,60.00,Monday
279,20.000000000000104
280,-0.5468578716876402
2,8, 1, 8, 0, 4, 0.00,60.00,Monday
279,20.00000000000012
280,-1.672455660159668
2,8, 1, 8, 0, 5, 0.00,60.00,Monday
279,19.99999999999991
280,-3.2394571684730848
2,8, 1, 8, 0, 6, 0.00,60.00,Monday
279,20.000000000000069
280,-3.2700912820403289
2,8, 1, 8, 0, 7, 0.00,60.00,Monday
279,20.00000000000022
280,-4.349999693607387
2,8, 1, 8, 0, 8, 0.00,60.00,Monday
279,20.000000000000097
280,-2.9034086029377756
2,8, 1, 8, 0, 9, 0.00,60.00,Monday
279,20.00000000000005
280,1.9688183350675637
2,8, 1, 8, 0,10, 0.00,60.00,Monday
279,20.00000000000004
280,4.653527908620222
2,8, 1, 8, 0,11, 0.00,60.00,Monday
279,20.0
280,6.975377137319357
2,8, 1, 8, 0,12, 0.00,60.00,Monday
279,20.0
280,7.681383143142176
2,8, 1, 8, 0,13, 0.00,60.00,Monday
279,20.00000000000001
280,10.441834352481758
2,8, 1, 8, 0,14, 0.00,60.00,Monday
279,20.0
280,10.483222241870049
2,8, 1, 8, 0,15, 0.00,60.00,Monday
279,20.000000000000005
280,7.8469538184328819
2,8, 1, 8, 0,16, 0.00,60.00,Monday
279,20.000000000000005
280,6.736986473194712
2,8, 1, 8, 0,17, 0.00,60.00,Monday
279,20.0
280,4.513570680489366
2,8, 1, 8, 0,18, 0.00,60.00,Monday
279,20.00000000000002
280,0.8622218283478229
2,8, 1, 8, 0,19, 0.00,60.00,Monday
279,20.000000000000055
280,-0.47708654863211288
2,8, 1, 8, 0,20, 0.00,60.00,Monday
279,20.000000000000005
280,-1.6183519091992636
2,8, 1, 8, 0,21, 0.00,60.00,Monday
279,20.0
280,-1.1064376242929007
2,8, 1, 8, 0,22, 0.00,60.00,Monday
279,20.000000000000015
280,-2.1663102262668287
2,8, 1, 8, 0,23, 0.00,60.00,Monday
279,20.0
280,-1.7358157569279873
2,8, 1, 8, 0,24, 0.00,60.00,Monday
279,20.000000000000097
280,-2.78239399373613
2,9, 1, 9, 0, 1, 0.00,60.00,Tuesday
279,19.999999999999966
280,-3.294185766840428
2,9, 1, 9, 0, 2, 0.00,60.00,Tuesday
279,20.000000000000108
280,-3.3220715051176588
2,9, 1, 9, 0, 3, 0.00,60.00,Tuesday
279,20.000000000000126
280,-3.3383537659284086
2,9, 1, 9, 0, 4, 0.00,60.00,Tuesday
279,20.00000000000003
280,-3.347340214298823
2,9, 1, 9, 0, 5, 0.00,60.00,Tuesday
279,20.00000000000011
280,-3.926761190397593
2,9, 1, 9, 0, 6, 0.00,60.00,Tuesday
279,20.000000000000119
280,-3.378030234040413
2,9, 1, 9, 0, 7, 0.00,60.00,Tuesday
279,19.999999999999905
280,-5.284785384881806
2,9, 1, 9, 0, 8, 0.00,60.00,Tuesday
279,20.000000000000079
280,-1.673187630856763
2,9, 1, 9, 0, 9, 0.00,60.00,Tuesday
279,20.000000000000069
280,0.0501871815643826
2,9, 1, 9, 0,10, 0.00,60.00,Tuesday
279,20.000000000000015
280,2.443120138698747
2,9, 1, 9, 0,11, 0.00,60.00,Tuesday
279,20.00000000000001
280,3.6694934870515159
2,9, 1, 9, 0,12, 0.00,60.00,Tuesday
279,20.000000000000015
280,3.232481350064355
2,9, 1, 9, 0,13, 0.00,60.00,Tuesday
279,20.0
280,3.268281288454016
2,9, 1, 9, 0,14, 0.00,60.00,Tuesday
279,19.99999999999996
280,3.862974393701205
2,9, 1, 9, 0,15, 0.00,60.00,Tuesday
279,20.0
280,4.345791665883284
2,9, 1, 9, 0,16, 0.00,60.00,Tuesday
279,20.000000000000005
280,3.865059165877135
2,9, 1, 9, 0,17, 0.00,60.00,Tuesday
279,20.0
280,2.7942285082102109
2,9, 1, 9, 0,18, 0.00,60.00,Tuesday
279,20.00000000000007
280,1.1504449406458699
2,9, 1, 9, 0,19, 0.00,60.00,Tuesday
279,20.0
280,0.03616729199692742
2,9, 1, 9, 0,20, 0.00,60.00,Tuesday
279,20.000000000000005
280,0.5317210484998195
2,9, 1, 9, 0,21, 0.00,60.00,Tuesday
279,20.000000000000079
280,-1.669459912233246
2,9, 1, 9, 0,22, 0.00,60.00,Tuesday
279,20.00000000000001
280,-1.7048841154073962
2,9, 1, 9, 0,23, 0.00,60.00,Tuesday
279,19.999999999999923
280,-2.782745119294463
2,9, 1, 9, 0,24, 0.00,60.00,Tuesday
279,20.0000000000001
280,-4.345776011429799
2,10, 1,10, 0, 1, 0.00,60.00,Wednesday
279,20.00000000000008
280,-4.398370885774889
2,10, 1,10, 0, 2, 0.00,60.00,Wednesday
279,20.000000000000119
280,-4.999028930309418
2,10, 1,10, 0, 3, 0.00,60.00,Wednesday
279,20.000000000000044
280,-5.041445881405335
2,10, 1,10, 0, 4, 0.00,60.00,Wednesday
279,20.000000000000005
280,-5.618036884832855
2,10, 1,10, 0, 5, 0.00,60.00,Wednesday
279,20.000000000000126
280,-6.112608251217415
2,10, 1,10, 0, 6, 0.00,60.00,Wednesday
279,19.99999999999988
280,-6.7044471116131059
2,10, 1,10, 0, 7, 0.00,60.00,Wednesday
279,20.000000000000186
280,-5.735489658091793
2,10, 1,10, 0, 8, 0.00,60.00,Wednesday
279,19.99999999999999
280,-5.10939871334557
2,10, 1,10, 0, 9, 0.00,60.00,Wednesday
279,20.000000000000094
280,-1.9210969705944386
2,10, 1,10, 0,10, 0.00,60.00,Wednesday
279,20.00000000000002
280,1.3717573764004084
2,10, 1,10, 0,11, 0.00,60.00,Wednesday
279,20.000000000000008
280,4.0568312158879229
2,10, 1,10, 0,12, 0.00,60.00,Wednesday
279,20.00000000000002
280,5.72949411766011
2,10, 1,10, 0,13, 0.00,60.00,Wednesday
279,20.000000000000008
280,6.537529136788825
2,10, 1,10, 0,14, 0.00,60.00,Wednesday
279,20.000000000000026
280,6.855230543162214
2,10, 1,10, 0,15, 0.00,60.00,Wednesday
279,20.0
280,5.074347371067022
2,10, 1,10, 0,16, 0.00,60.00,Wednesday
279,20.000000000000008
280,5.875900170880078
2,10, 1,10, 0,17, 0.00,60.00,Wednesday
279,20.000000000000033
280,3.3755889435424648
2,10, 1,10, 0,18, 0.00,60.00,Wednesday
279,20.000000000000065
280,0.7686248929477468
2,10, 1,10, 0,19, 0.00,60.00,Wednesday
279,20.00000000000005
280,-0.9795017884038738
2,10, 1,10, 0,20, 0.00,60.00,Wednesday
279,20.000000000000019
280,-2.1192758361984018
2,10, 1,10, 0,21, 0.00,60.00,Wednesday
279,20.0
280,-1.216089018953832
2,10, 1,10, 0,22, 0.00,60.00,Wednesday
279,20.00000000000009
280,-3.2864427998113387
2,10, 1,10, 0,23, 0.00,60.00,Wednesday
279,20.00000000000006
280,-4.346117047708272
2,10, 1,10, 0,24, 0.00,60.00,Wednesday
279,19.99999999999999
280,-4.9909633849190249
2,11, 1,11, 0, 1, 0.00,60.00,Thursday
279,20.000000000000097
280,-5.589592981755794
2,11, 1,11, 0, 2, 0.00,60.00,Thursday
279,20.00000000000013
280,-6.098173857325913
2,11, 1,11, 0, 3, 0.00,60.00,Thursday
279,20.00000000000012
280,-6.138744252092412
2,11, 1,11, 0, 4, 0.00,60.00,Thursday
279,19.99999999999994
280,-5.668619641022509
2,11, 1,11, 0, 5, 0.00,60.00,Thursday
279,20.000000000000119
280,-5.082181883102092
2,11, 1,11, 0, 6, 0.00,60.00,Thursday
279,20.00000000000012
280,-4.016837418818388
2,11, 1,11, 0, 7, 0.00,60.00,Thursday
279,20.0000000000001
280,-3.9948410098609745
2,11, 1,11, 0, 8, 0.00,60.00,Thursday
279,20.000000000000214
280,-3.398166615396885
2,11, 1,11, 0, 9, 0.00,60.00,Thursday
279,19.999999999999966
280,-1.8127188445754028
2,11, 1,11, 0,10, 0.00,60.00,Thursday
279,20.0
280,0.855323060367208
2,11, 1,11, 0,11, 0.00,60.00,Thursday
279,20.000000000000015
280,6.427514223719702
2,11, 1,11, 0,12, 0.00,60.00,Thursday
279,20.000000000000008
280,7.2117972067768909
2,11, 1,11, 0,13, 0.00,60.00,Thursday
279,20.00000000000002
280,10.355422589665034
2,11, 1,11, 0,14, 0.00,60.00,Thursday
279,19.999999999999994
280,11.572664137138304
2,11, 1,11, 0,15, 0.00,60.00,Thursday
279,19.999999999999987
280,12.11566579273659
2,11, 1,11, 0,16, 0.00,60.00,Thursday
279,20.00000000000003
280,10.059596590977569
2,11, 1,11, 0,17, 0.00,60.00,Thursday
279,20.0
280,8.361543374377469
2,11, 1,11, 0,18, 0.00,60.00,Thursday
279,20.00000000000001
280,7.810243010236518
2,11, 1,11, 0,19, 0.00,60.00,Thursday
279,19.999999999999994
280,7.174205741967352
2,11, 1,11, 0,20, 0.00,60.00,Thursday
279,20.000000000000037
280,5.627676004598924
2,11, 1,11, 0,21, 0.00,60.00,Thursday
279,20.00000000000005
280,4.4365024808303679
2,11, 1,11, 0,22, 0.00,60.00,Thursday
279,19.99999999999998
280,5.986112660172552
2,11, 1,11, 0,23, 0.00,60.00,Thursday
279,20.00000000000005
280,4.423699328324492
2,11, 1,11, 0,24, 0.00,60.00,Thursday
279,19.999999999999944
280,3.8987515106332859
2,12, 1,12, 0, 1, 0.00,60.00,Friday
279,20.00000000000007
280,2.840341591102341
2,12, 1,12, 0, 2, 0.00,60.00,Friday
279,20.000000000000008
280,0.1714033677395388
2,12, 1,12, 0, 3, 0.00,60.00,Friday
279,20.00000000000003
280,-0.9319995261192726
2,12, 1,12, 0, 4, 0.00,60.00,Friday
279,20.0000000000001
280,-3.1286385925657456
2,12, 1,12, 0, 5, 0.00,60.00,Friday
279,20.00000000000007
280,-4.778899646334957
2,12, 1,12, 0, 6, 0.00,60.00,Friday
279,20.000000000000044
280,-5.474493474491357
2,12, 1,12, 0, 7, 0.00,60.00,Friday
279,20.0
280,-6.010723653001058
2,12, 1,12, 0, 8, 0.00,60.00,Friday
279,20.000000000000033
280,-4.456411618451302
2,12, 1,12, 0, 9, 0.00,60.00,Friday
279,20.0
280,-0.8209858828946761
2,12, 1,12, 0,10, 0.00,60.00,Friday
279,20.0
280,1.90768618448596
2,12, 1,12, 0,11, 0.00,60.00,Friday
279,20.000000000000047
280,5.616973213003812
2,12, 1,12, 0,12, 0.00,60.00,Friday
279,20.0
280,7.241373005059027
2,12, 1,12, 0,13, 0.00,60.00,Friday
279,20.00000000000006
280,7.732782843248626
2,12, 1,12, 0,14, 0.00,60.00,Friday
279,19.999999999999955
280,8.84864039279715
2,12, 1,12, 0,15, 0.00,60.00,Friday
279,19.999999999999948
280,8.308485473786956
2,12, 1,12, 0,16, 0.00,60.00,Friday
279,20.00000000000007
280,8.289632126195566
2,12, 1,12, 0,17, 0.00,60.00,Friday
279,20.000000000000069
280,4.504701053814963
2,12, 1,12, 0,18, 0.00,60.00,Friday
279,20.000000000000136
280,2.3841374728103648
2,12, 1,12, 0,19, 0.00,60.00,Friday
279,20.00000000000006
280,2.2529024583803167
2,12, 1,12, 0,20, 0.00,60.00,Friday
279,20.000000000000005
280,2.2142795814772389
2,12, 1,12, 0,21, 0.00,60.00,Friday
279,20.000000000000015
280,-0.8387179675884705
2,12, 1,12, 0,22, 0.00,60.00,Friday
279,20.000000000000097
280,-2.055032150370455
2,12, 1,12, 0,23, 0.00,60.00,Friday
279,20.00000000000003
280,-1.7004501899379965
2,12, 1,12, 0,24, 0.00,60.00,Friday
279,20.000000000000119
280,-1.7389762976053925
2,13, 1,13, 0, 1, 0.00,60.00,Saturday
279,20.00000000000006
280,0.40765520798530249
2,13, 1,13, 0, 2, 0.00,60.00,Saturday
279,20.00000000000001
280,2.9665774796881196
2,13, 1,13, 0, 3, 0.00,60.00,Saturday
279,20.000000000000058
280,2.659222029278748
2,13, 1,13, 0, 4, 0.00,60.00,Saturday
279,20.00000000000008
280,2.6018503035955966
2,13, 1,13, 0, 5, 0.00,60.00,Saturday
279,19.99999999999994
280,3.022313246902602
2,13, 1,13, 0, 6, 0.00,60.00,Saturday
279,19.999999999999994
280,2.6409525730574976
2,13, 1,13, 0, 7, 0.00,60.00,Saturday
279,20.000000000000055
280,2.1049841854369264
2,13, 1,13, 0, 8, 0.00,60.00,Saturday
279,20.0
280,3.1723560548543636
2,13, 1,13, 0, 9, 0.00,60.00,Saturday
279,20.00000000000004
280,5.268603656878232
2,13, 1,13, 0,10, 0.00,60.00,Saturday
279,20.00000000000004
280,7.427881444306982
2,13, 1,13, 0,11, 0.00,60.00,Saturday
279,20.0
280,9.042907505803527
2,13, 1,13, 0,12, 0.00,60.00,Saturday
279,20.01419551735103
280,9.103380499305832
2,13, 1,13, 0,13, 0.00,60.00,Saturday
279,20.158589584123815
280,9.649186849328054
2,13, 1,13, 0,14, 0.00,60.00,Saturday
279,20.13666397848285
280,9.24488394903869
2,13, 1,13, 0,15, 0.00,60.00,Saturday
279,20.223440285274383
280,7.945269968344241
2,13, 1,13, 0,16, 0.00,60.00,Saturday
279,20.24765159628734
280,7.428109131035528
2,13, 1,13, 0,17, 0.00,60.00,Saturday
279,20.000050260329375
280,8.172739089792195
2,13, 1,13, 0,18, 0.00,60.00,Saturday
279,20.000000490354347
280,7.112238966144134
2,13, 1,13, 0,19, 0.00,60.00,Saturday
279,20.000000006044606
280,6.621468640560516
2,13, 1,13, 0,20, 0.00,60.00,Saturday
279,20.00000000007142
280,4.907995338267652
2,13, 1,13, 0,21, 0.00,60.00,Saturday
279,20.00000000000108
280,5.9439777244065079
2,13, 1,13, 0,22, 0.00,60.00,Saturday
279,20.000000000000044
280,3.366590064839803
2,13, 1,13, 0,23, 0.00,60.00,Saturday
279,19.999999999999966
280,1.7876963974172824
2,13, 1,13, 0,24, 0.00,60.00,Saturday
279,20.000000000000033
280,2.7273734732137915
2,14, 1,14, 0, 1, 0.00,60.00,Sunday
279,19.999999999999966
280,5.428441006938548
2,14, 1,14, 0, 2, 0.00,60.00,Sunday
279,20.00000000000004
280,6.388977695428664
2,14, 1,14, 0, 3, 0.00,60.00,Sunday
279,19.99999999999998
280,7.038391604814938
2,14, 1,14, 0, 4, 0.00,60.00,Sunday
279,20.00000000000001
280,6.602572091352609
2,14, 1,14, 0, 5, 0.00,60.00,Sunday
279,20.000000000000069
280,6.606623925221676
2,14, 1,14, 0, 6, 0.00,60.00,Sunday
279,20.00000000000002
280,6.590863424943458
2,14, 1,14, 0, 7, 0.00,60.00,Sunday
279,20.000000000000069
280,6.623180247727844
2,14, 1,14, 0, 8, 0.00,60.00,Sunday
279,20.000000000000058
280,6.635757692553322
2,14, 1,14, 0, 9, 0.00,60.00,Sunday
279,20.000000000000047
280,8.185166524762949
2,14, 1,14, 0,10, 0.00,60.00,Sunday
279,19.999999999999987
280,9.827300700576386
2,14, 1,14, 0,11, 0.00,60.00,Sunday
279,20.000000000000005
280,12.045190262844777
2,14, 1,14, 0,12, 0.00,60.00,Sunday
279,20.167565868735939
280,12.633727393509306
2,14, 1,14, 0,13, 0.00,60.00,Sunday
279,20.1238391807925
280,13.12212505131891
2,14, 1,14, 0,14, 0.00,60.00,Sunday
279,20.022831085347943
280,13.251897476541739
2,14, 1,14, 0,15, 0.00,60.00,Sunday
279,20.000014004262814
280,12.805182033427214
2,14, 1,14, 0,16, 0.00,60.00,Sunday
279,20.00000008197177
280,12.225003705220406
2,14, 1,14, 0,17, 0.00,60.00,Sunday
279,20.00000000109766
280,10.127001571729997
2,14, 1,14, 0,18, 0.00,60.00,Sunday
279,20.000000000012006
280,8.999316651391453
2,14, 1,14, 0,19, 0.00,60.00,Sunday
279,20.000000000000158
280,7.288534410416871
2,14, 1,14, 0,20, 0.00,60.00,Sunday
279,20.00000000000004
280,5.694616204113293
2,14, 1,14, 0,21, 0.00,60.00,Sunday
279,19.999999999999976
280,2.9626784155071737
2,14, 1,14, 0,22, 0.00,60.00,Sunday
279,19.999999999999934
280,1.2633475466985685
2,14, 1,14, 0,23, 0.00,60.00,Sunday
279,20.0
280,0.6899405329179507
2,14, 1,14, 0,24, 0.00,60.00,Sunday
279,20.00000000000008
280,-0.9781429586865186
2,15, 1,15, 0, 1, 0.00,60.00,Monday
279,20.000000000000055
280,-1.048879306741358
2,15, 1,15, 0, 2, 0.00,60.00,Monday
279,20.000000000000044
280,-1.6454331603741497
2,15, 1,15, 0, 3, 0.00,60.00,Monday
279,19.99999999999994
280,-1.725082871946689
2,15, 1,15, 0, 4, 0.00,60.00,Monday
279,19.999999999999944
280,-2.230322010364249
2,15, 1,15, 0, 5, 0.00,60.00,Monday
279,20.0
280,-1.7915005501958253
2,15, 1,15, 0, 6, 0.00,60.00,Monday
279,20.00000000000004
280,-1.2350829461394629
2,15, 1,15, 0, 7, 0.00,60.00,Monday
279,20.000000000000104
280,-2.8147443579978437
2,15, 1,15, 0, 8, 0.00,60.00,Monday
279,20.000000000000044
280,-2.28515192638361
2,15, 1,15, 0, 9, 0.00,60.00,Monday
279,20.000000000000015
280,2.943774818374147
2,15, 1,15, 0,10, 0.00,60.00,Monday