Program Version,EnergyPlus, Version 9.2.0-921312fa1d, YMD=2020.03.10 07:41
1,5,Environment Title[],Latitude[deg],Longitude[deg],Time Zone[],Elevation[m]
2,8,Day of Simulation[],Month[],Day of Month[],DST Indicator[1=yes 0=no],Hour[],StartMinute[],EndMinute[],DayType
3,5,Cumulative Day of Simulation[],Month[],Day of Month[],DST Indicator[1=yes 0=no],DayType  ! When Daily Report Variables Requested
4,2,Cumulative Days of Simulation[],Month[]  ! When Monthly Report Variables Requested
5,1,Cumulative Days of Simulation[] ! When Run Period Report Variables Requested
6,1,Calendar Year of Simulation[] ! When Annual Report Variables Requested
322,9,EMS,central ac supply fan clg disaggregate [J] !Monthly [Value,Min,Day,Hour,Minute,Max,Day,Hour,Minute]
323,11,EMS,central ac supply fan clg disaggregate [J] !RunPeriod [Value,Min,Month,Day,Hour,Minute,Max,Month,Day,Hour,Minute]
324,1,EMS,central ac supply fan clg disaggregate [J] !Hourly
325,9,EMS,furnace supply fan htg primary disaggregate [J] !Monthly [Value,Min,Day,Hour,Minute,Max,Day,Hour,Minute]
326,11,EMS,furnace supply fan htg primary disaggregate [J] !RunPeriod [Value,Min,Month,Day,Hour,Minute,Max,Month,Day,Hour,Minute]
327,1,EMS,furnace supply fan htg primary disaggregate [J] !Hourly
328,11,EMS,water heater EC adjustment outvar [J] !RunPeriod [Value,Min,Month,Day,Hour,Minute,Max,Month,Day,Hour,Minute]
329,1,EMS,water heater EC adjustment outvar [J] !Hourly
330,11,EMS,loads_htg_roofs_annual_outvar [J] !RunPeriod [Value,Min,Month,Day,Hour,Minute,Max,Month,Day,Hour,Minute]
331,11,EMS,loads_htg_ceilings_annual_outvar [J] !RunPeriod [Value,Min,Month,Day,Hour,Minute,Max,Month,Day,Hour,Minute]
332,11,EMS,loads_htg_walls_annual_outvar [J] !RunPeriod [Value,Min,Month,Day,Hour,Minute,Max,Month,Day,Hour,Minute]
333,11,EMS,loads_htg_rim_joists_annual_outvar [J] !RunPeriod [Value,Min,Month,Day,Hour,Minute,Max,Month,Day,Hour,Minute]
334,11,EMS,loads_htg_foundation_walls_annual_outvar [J] !RunPeriod [Value,Min,Month,Day,Hour,Minute,Max,Month,Day,Hour,Minute]
335,11,EMS,loads_htg_doors_annual_outvar [J] !RunPeriod [Value,Min,Month,Day,Hour,Minute,Max,Month,Day,Hour,Minute]
336,11,EMS,loads_htg_windows_annual_outvar [J] !RunPeriod [Value,Min,Month,Day,Hour,Minute,Max,Month,Day,Hour,Minute]
337,11,EMS,loads_htg_skylights_annual_outvar [J] !RunPeriod [Value,Min,Month,Day,Hour,Minute,Max,Month,Day,Hour,Minute]
338,11,EMS,loads_htg_floors_annual_outvar [J] !RunPeriod [Value,Min,Month,Day,Hour,Minute,Max,Month,Day,Hour,Minute]
339,11,EMS,loads_htg_slabs_annual_outvar [J] !RunPeriod [Value,Min,Month,Day,Hour,Minute,Max,Month,Day,Hour,Minute]
340,11,EMS,loads_htg_internal_mass_annual_outvar [J] !RunPeriod [Value,Min,Month,Day,Hour,Minute,Max,Month,Day,Hour,Minute]
341,11,EMS,loads_htg_infil_annual_outvar [J] !RunPeriod [Value,Min,Month,Day,Hour,Minute,Max,Month,Day,Hour,Minute]
342,11,EMS,loads_htg_natvent_annual_outvar [J] !RunPeriod [Value,Min,Month,Day,Hour,Minute,Max,Month,Day,Hour,Minute]
343,11,EMS,loads_htg_mechvent_annual_outvar [J] !RunPeriod [Value,Min,Month,Day,Hour,Minute,Max,Month,Day,Hour,Minute]
344,11,EMS,loads_htg_whf_annual_outvar [J] !RunPeriod [Value,Min,Month,Day,Hour,Minute,Max,Month,Day,Hour,Minute]
345,11,EMS,loads_htg_ducts_annual_outvar [J] !RunPeriod [Value,Min,Month,Day,Hour,Minute,Max,Month,Day,Hour,Minute]
346,11,EMS,loads_htg_intgains_annual_outvar [J] !RunPeriod [Value,Min,Month,Day,Hour,Minute,Max,Month,Day,Hour,Minute]
347,11,EMS,loads_clg_roofs_annual_outvar [J] !RunPeriod [Value,Min,Month,Day,Hour,Minute,Max,Month,Day,Hour,Minute]
348,11,EMS,loads_clg_ceilings_annual_outvar [J] !RunPeriod [Value,Min,Month,Day,Hour,Minute,Max,Month,Day,Hour,Minute]
349,11,EMS,loads_clg_walls_annual_outvar [J] !RunPeriod [Value,Min,Month,Day,Hour,Minute,Max,Month,Day,Hour,Minute]
350,11,EMS,loads_clg_rim_joists_annual_outvar [J] !RunPeriod [Value,Min,Month,Day,Hour,Minute,Max,Month,Day,Hour,Minute]
351,11,EMS,loads_clg_foundation_walls_annual_outvar [J] !RunPeriod [Value,Min,Month,Day,Hour,Minute,Max,Month,Day,Hour,Minute]
352,11,EMS,loads_clg_doors_annual_outvar [J] !RunPeriod [Value,Min,Month,Day,Hour,Minute,Max,Month,Day,Hour,Minute]
353,11,EMS,loads_clg_windows_annual_outvar [J] !RunPeriod [Value,Min,Month,Day,Hour,Minute,Max,Month,Day,Hour,Minute]
354,11,EMS,loads_clg_skylights_annual_outvar [J] !RunPeriod [Value,Min,Month,Day,Hour,Minute,Max,Month,Day,Hour,Minute]
355,11,EMS,loads_clg_floors_annual_outvar [J] !RunPeriod [Value,Min,Month,Day,Hour,Minute,Max,Month,Day,Hour,Minute]
356,11,EMS,loads_clg_slabs_annual_outvar [J] !RunPeriod [Value,Min,Month,Day,Hour,Minute,Max,Month,Day,Hour,Minute]
357,11,EMS,loads_clg_internal_mass_annual_outvar [J] !RunPeriod [Value,Min,Month,Day,Hour,Minute,Max,Month,Day,Hour,Minute]
358,11,EMS,loads_clg_infil_annual_outvar [J] !RunPeriod [Value,Min,Month,Day,Hour,Minute,Max,Month,Day,Hour,Minute]
359,11,EMS,loads_clg_natvent_annual_outvar [J] !RunPeriod [Value,Min,Month,Day,Hour,Minute,Max,Month,Day,Hour,Minute]
360,11,EMS,loads_clg_mechvent_annual_outvar [J] !RunPeriod [Value,Min,Month,Day,Hour,Minute,Max,Month,Day,Hour,Minute]
361,11,EMS,loads_clg_whf_annual_outvar [J] !RunPeriod [Value,Min,Month,Day,Hour,Minute,Max,Month,Day,Hour,Minute]
362,11,EMS,loads_clg_ducts_annual_outvar [J] !RunPeriod [Value,Min,Month,Day,Hour,Minute,Max,Month,Day,Hour,Minute]
363,11,EMS,loads_clg_intgains_annual_outvar [J] !RunPeriod [Value,Min,Month,Day,Hour,Minute,Max,Month,Day,Hour,Minute]
364,11,EMS,loads_htg_tot_annual_outvar [J] !RunPeriod [Value,Min,Month,Day,Hour,Minute,Max,Month,Day,Hour,Minute]
365,11,EMS,loads_clg_tot_annual_outvar [J] !RunPeriod [Value,Min,Month,Day,Hour,Minute,Max,Month,Day,Hour,Minute]
476,1,ATTIC - VENTED,Zone Mean Air Temperature [C] !Hourly
477,1,LIVING SPACE,Zone Mean Air Temperature [C] !Hourly
743,11,CENTRAL AC CLG COIL,Cooling Coil Electric Energy [J] !RunPeriod [Value,Min,Month,Day,Hour,Minute,Max,Month,Day,Hour,Minute]
756,1,CENTRAL AC CLG COIL,Cooling Coil Electric Energy [J] !Hourly
757,11,FURNACE HTG COIL,Heating Coil Heating Energy [J] !RunPeriod [Value,Min,Month,Day,Hour,Minute,Max,Month,Day,Hour,Minute]
770,1,FURNACE HTG COIL,Heating Coil Heating Energy [J] !Hourly
771,11,FURNACE HTG COIL,Heating Coil Gas Energy [J] !RunPeriod [Value,Min,Month,Day,Hour,Minute,Max,Month,Day,Hour,Minute]
808,1,FURNACE HTG COIL,Heating Coil Gas Energy [J] !Hourly
1037,11,WATER USE CONNECTIONS 1,Water Use Connections Plant Hot Water Energy [J] !RunPeriod [Value,Min,Month,Day,Hour,Minute,Max,Month,Day,Hour,Minute]
1074,1,WATER USE CONNECTIONS 1,Water Use Connections Plant Hot Water Energy [J] !Hourly
1075,11,WATER HEATER,Water Heater Heat Loss Energy [J] !RunPeriod [Value,Min,Month,Day,Hour,Minute,Max,Month,Day,Hour,Minute]
1076,1,WATER HEATER,Water Heater Heat Loss Energy [J] !Hourly
1092,11,WATER HEATER,Water Heater Electric Energy [J] !RunPeriod [Value,Min,Month,Day,Hour,Minute,Max,Month,Day,Hour,Minute]
1129,1,WATER HEATER,Water Heater Electric Energy [J] !Hourly
1131,11,WATER HEATER,Water Heater Off Cycle Parasitic Electric Energy [J] !RunPeriod [Value,Min,Month,Day,Hour,Minute,Max,Month,Day,Hour,Minute]
1132,1,WATER HEATER,Water Heater Off Cycle Parasitic Electric Energy [J] !Hourly
1134,11,WATER HEATER,Water Heater On Cycle Parasitic Electric Energy [J] !RunPeriod [Value,Min,Month,Day,Hour,Minute,Max,Month,Day,Hour,Minute]
1135,1,WATER HEATER,Water Heater On Cycle Parasitic Electric Energy [J] !Hourly
1298,11,CENTRAL AC CLG COIL,Cooling Coil Crankcase Heater Electric Energy [J] !RunPeriod [Value,Min,Month,Day,Hour,Minute,Max,Month,Day,Hour,Minute]
1299,1,CENTRAL AC CLG COIL,Cooling Coil Crankcase Heater Electric Energy [J] !Hourly
16,11,Electricity:Facility [J] !RunPeriod [Value,Min,Month,Day,Hour,Minute,Max,Month,Day,Hour,Minute]
777,11,Gas:Facility [J] !RunPeriod [Value,Min,Month,Day,Hour,Minute,Max,Month,Day,Hour,Minute]
107,11,interior lighting:InteriorLights:Electricity [J] !RunPeriod [Value,Min,Month,Day,Hour,Minute,Max,Month,Day,Hour,Minute]
28,11,ExteriorLights:Electricity [J] !RunPeriod [Value,Min,Month,Day,Hour,Minute,Max,Month,Day,Hour,Minute]
234,11,mech vent house fan:InteriorEquipment:Electricity [J] !RunPeriod [Value,Min,Month,Day,Hour,Minute,Max,Month,Day,Hour,Minute]
294,11,whole house fan:InteriorEquipment:Electricity [J] !RunPeriod [Value,Min,Month,Day,Hour,Minute,Max,Month,Day,Hour,Minute]
204,11,fridge:InteriorEquipment:Electricity [J] !RunPeriod [Value,Min,Month,Day,Hour,Minute,Max,Month,Day,Hour,Minute]
189,11,dishwasher:InteriorEquipment:Electricity [J] !RunPeriod [Value,Min,Month,Day,Hour,Minute,Max,Month,Day,Hour,Minute]
159,11,clothes washer:InteriorEquipment:Electricity [J] !RunPeriod [Value,Min,Month,Day,Hour,Minute,Max,Month,Day,Hour,Minute]
144,11,clothes dryer:InteriorEquipment:Electricity [J] !RunPeriod [Value,Min,Month,Day,Hour,Minute,Max,Month,Day,Hour,Minute]
174,11,cooking range:InteriorEquipment:Electricity [J] !RunPeriod [Value,Min,Month,Day,Hour,Minute,Max,Month,Day,Hour,Minute]
279,11,misc tv:InteriorEquipment:Electricity [J] !RunPeriod [Value,Min,Month,Day,Hour,Minute,Max,Month,Day,Hour,Minute]
264,11,misc plug loads:InteriorEquipment:Electricity [J] !RunPeriod [Value,Min,Month,Day,Hour,Minute,Max,Month,Day,Hour,Minute]
634,11,Heating:DistrictHeating [J] !RunPeriod [Value,Min,Month,Day,Hour,Minute,Max,Month,Day,Hour,Minute]
671,11,Cooling:DistrictCooling [J] !RunPeriod [Value,Min,Month,Day,Hour,Minute,Max,Month,Day,Hour,Minute]
12,1,Electricity:Facility [J] !Hourly
773,1,Gas:Facility [J] !Hourly
103,1,interior lighting:InteriorLights:Electricity [J] !Hourly
24,1,ExteriorLights:Electricity [J] !Hourly
230,1,mech vent house fan:InteriorEquipment:Electricity [J] !Hourly
290,1,whole house fan:InteriorEquipment:Electricity [J] !Hourly
200,1,fridge:InteriorEquipment:Electricity [J] !Hourly
185,1,dishwasher:InteriorEquipment:Electricity [J] !Hourly
155,1,clothes washer:InteriorEquipment:Electricity [J] !Hourly
140,1,clothes dryer:InteriorEquipment:Electricity [J] !Hourly
170,1,cooking range:InteriorEquipment:Electricity [J] !Hourly
275,1,misc tv:InteriorEquipment:Electricity [J] !Hourly
260,1,misc plug loads:InteriorEquipment:Electricity [J] !Hourly
End of Data Dictionary
1,RUN PERIOD 1,  39.83,-104.65,  -7.00,1650.00
2,1, 1, 1, 0, 1, 0.00,60.00,Monday
476,-12.824746971013905
477,20.005113609495856
324,0.0
327,225346.57122277583
329,0.0
756,0.0
770,8718523.693208253
808,11177594.47847212
1074,0.0
1076,-135770.34234735266
1129,0.0
1132,0.0
1135,0.0
1299,180000.0
12,2659268.6223822196
24,31520.721656648944
103,350751.86013675309
140,96538.02982053661
155,0.0
170,33823.53604600406
185,0.0
200,227930.72181057043
230,0.0
260,1208423.3329248299
275,304933.84876410107
290,0.0
773,11177594.47847212
2,1, 1, 1, 0, 2, 0.00,60.00,Monday
476,-13.593249616956735
477,20.000245113184229
324,0.0
327,277411.4205435229
329,0.0
756,0.0
770,10732881.488506152
808,13760104.472443784
1074,0.0
1076,-135291.28108945304
1129,0.0
1132,0.0
1135,0.0
1299,180000.0
12,2400609.1703854568
24,18912.432993989292
103,210451.11608205099
140,57922.81789232189
155,0.0
170,33823.53604600406
185,0.0
200,222232.45376530625
230,0.0
260,1117791.5829554678
275,282063.8101067935
290,0.0
773,13760104.472443784
2,1, 1, 1, 0, 3, 0.00,60.00,Monday
476,-13.956211756193524
477,20.00001296410648
324,0.0
327,306077.3416674538
329,0.0
756,0.0
770,11841948.784939772
808,15181985.621717655
1074,0.0
1076,-134307.80780177445
1129,0.0
1132,0.0
1135,0.0
1299,180000.0
12,2313318.8999787627
24,12608.288662659528
103,140300.74405470069
140,38615.211928214565
155,0.0
170,19327.734883430905
185,0.0
200,216534.18572004169
230,0.0
260,1117791.5829554678
275,282063.8101067935
290,0.0
773,15181985.621717655
2,1, 1, 1, 0, 4, 0.00,60.00,Monday
476,-15.10209391011282
477,20.000000738133445
324,0.0
327,328148.07321295959
329,0.0
756,0.0
770,12695852.151926002
808,16276733.528110257
1074,0.0
1076,-133312.37171630239
1129,0.0
1132,0.0
1135,0.0
1299,180000.0
12,2272549.827972674
24,12608.288662659528
103,140300.74405470069
140,19307.60596410732
155,0.0
170,19327.734883430905
185,0.0
200,210835.9176747775
230,0.0
260,1087580.999632347
275,274440.4638876909
290,0.0
773,16276733.528110257
2,1, 1, 1, 0, 5, 0.00,60.00,Monday
476,-15.198778924655234
477,20.000000043602289
324,0.0
327,338330.5009766891
329,0.0
756,0.0
770,13089804.17538366
808,16781800.224850846
1074,0.0
1076,-132323.48964144256
1129,0.0
1132,0.0
1135,0.0
1299,180000.0
12,2214427.0081180918
24,14017.579698740728
103,155982.85494556168
140,38615.211928214565
155,0.0
170,33823.53604600406
185,0.0
200,205137.64962951334
230,0.0
260,996949.2496629846
275,251570.42523038339
290,0.0
773,16781800.224850846
2,1, 1, 1, 0, 6, 0.00,60.00,Monday
476,-14.401069939231319
477,20.000000002549098
324,0.0
327,330208.1250419871
329,0.0
756,0.0
770,12775554.321713437
808,16378915.797068507
1074,0.0
1076,-131341.980632461
1129,0.0
1132,0.0
1135,0.0
1299,180000.0
12,2654902.5760645049
24,38462.59422001201
103,427998.6548311974
140,57922.81789232189
155,0.0
170,53151.2709294349
185,0.0
200,205137.64962951334
230,0.0
260,1087580.999632347
275,274440.4638876909
290,0.0
773,16378915.797068507
2,1, 1, 1, 0, 7, 0.00,60.00,Monday
476,-13.392236005061167
477,20.000000000144959
324,0.0
327,318563.40120914377
329,0.0
756,0.0
770,12325026.940326546
808,15801316.590162237
1074,142261.2844469715
1076,-129847.0486105522
1129,0.0
1132,0.0
1135,0.0
1299,180000.0
12,3712337.99555392
24,90299.55374739846
103,1004822.6938274336
140,154460.8477128584
155,0.0
170,120798.34302144323
185,0.0
200,216534.18572004169
230,0.0
260,1299055.0828941924
275,327803.8874214086
290,0.0
773,15801316.590162237
2,1, 1, 1, 0, 8, 0.00,60.00,Monday
476,-8.916592138557574
477,20.00000000000783
324,0.0
327,299846.6087640033
329,0.0
756,0.0
770,11600885.46567106
808,14872930.084193668
1074,351616.62267909166
1076,-134403.7565873482
1129,1153711.228863115
1132,0.0
1135,0.0
1299,180000.0
12,5537395.13287876
24,114271.75744381984
103,1271577.215811016
140,308921.6954257168
155,0.0
170,202941.21627602424
185,0.0
200,227930.72181057043
230,0.0
260,1419897.4161866753
275,358297.2722978187
290,0.0
773,14872930.084193668
2,1, 1, 1, 0, 9, 0.00,60.00,Monday
476,-6.9144360127718349
477,20.000000000000484
324,0.0
327,266002.75810732776
329,0.0
756,0.0
770,10291487.180982162
808,13194214.334592512
1074,5192752.5895961229
1076,-132422.37773469187
1129,4619143.575114243
1132,0.0
1135,0.0
1299,180000.0
12,10115090.006588389
24,121438.7837423188
103,1351329.444621973
140,463382.54313857536
155,1371541.3564130692
170,222268.95115945536
185,0.0
200,233628.98985583458
230,0.0
260,1027159.8329861055
275,259193.77144948589
290,0.0
773,13194214.334592512
2,1, 1, 1, 0,10, 0.00,60.00,Monday
476,-2.7953627466910544
477,20.000000000000033
324,0.0
327,174552.5082962544
329,0.0
756,0.0
770,6753331.861372524
808,8658117.770990415
1074,0.0
1076,-135484.27422457038
1129,1133160.7178224005
1132,0.0
1135,0.0
1299,180000.0
12,4993816.765106324
24,124830.57748974454
103,1389072.1707901357
140,656458.6027796477
155,0.0
170,231932.81860117054
185,0.0
200,233628.98985583458
230,0.0
260,694843.4164317773
275,175336.9630393581
290,0.0
773,8658117.770990415
2,1, 1, 1, 0,11, 0.00,60.00,Monday
476,1.1798111167371444
477,19.99999999999999
324,0.0
327,114165.59159364259
329,0.0
756,0.0
770,4416998.270074895
808,5662818.294967813
1074,0.0
1076,-135455.56014330744
1129,0.0
1132,0.0
1135,0.0
1299,180000.0
12,3858789.2464021348
24,121436.52005279417
103,1351304.25505556
140,752996.6326001843
155,0.0
170,202941.21627602424
185,0.0
200,227930.72181057043
230,0.0
260,725053.9997548979
275,182960.30925846063
290,0.0
773,5662818.294967813
2,1, 1, 1, 0,12, 0.00,60.00,Monday
476,2.968817291464525
477,19.999999999999984
324,0.0
327,81265.01754893978
329,0.0
756,0.0
770,3144094.791790675
808,4030890.7587059938
1074,199266.3413295325
1076,-133704.5287606822
1129,0.0
1132,0.0
1135,0.0
1299,180000.0
12,3874310.682862975
24,116734.14550150292
103,1298977.8318571493
140,781958.0415463452
155,0.0
170,241596.68604288577
185,0.0
200,227930.72181057043
230,0.0
260,755264.5830780187
275,190583.65547756313
290,0.0
773,4030890.7587059938
2,1, 1, 1, 0,13, 0.00,60.00,Monday
476,4.525632892498189
477,20.00000000000002
324,0.0
327,76588.49818911542
329,0.0
756,0.0
770,2963163.0624142896
808,3798927.0030952428
1074,1259164.8375306952
1076,-132500.90603471819
1129,1210292.1951253445
1132,0.0
1135,0.0
1299,180000.0
12,4978573.9071769
24,113340.08806455229
103,1261209.916122571
140,714381.4206719695
155,0.0
170,275420.22208889006
185,0.0
200,239327.25790109879
230,0.0
260,725053.9997548979
275,182960.30925846063
290,0.0
773,3798927.0030952428
2,1, 1, 1, 0,14, 0.00,60.00,Monday
476,3.4897136938488955
477,19.999999999999966
324,0.0
327,76460.40330888673
329,0.0
756,0.0
770,2958207.148320755
808,3792573.2670778909
1074,0.0
1076,-130629.67462235605
1129,0.0
1132,0.0
1135,0.0
1299,180000.0
12,3786648.9292199357
24,112341.33688407114
103,1250096.1529865785
140,646804.7997975946
155,0.0
170,222268.95115945536
185,0.0
200,239327.25790109879
230,0.0
260,845896.3330473809
275,213453.69413487073
290,0.0
773,3792573.2670778909
2,1, 1, 1, 0,15, 0.00,60.00,Monday
476,4.046330950339485
477,19.999999999999966
324,0.0
327,60165.8357170804
329,0.0
756,0.0
770,2327780.100556612
808,2984333.4622520667
1074,743088.1700998218
1076,-133072.42051099629
1129,1177440.0221603669
1132,0.0
1135,0.0
1299,180000.0
12,5039138.850675714
24,114091.83433341766
103,1269575.0926888814
140,550266.7699770579
155,0.0
170,275420.22208889006
185,0.0
200,239327.25790109879
230,0.0
260,936528.0830167432
275,236323.73279217829
290,0.0
773,2984333.4622520667
2,1, 1, 1, 0,16, 0.00,60.00,Monday
476,2.4384996472804318
477,20.000000000000044
324,0.0
327,58860.67979651593
329,0.0
756,0.0
770,2277284.4007328806
808,2919595.3855549755
1074,1468507.400378626
1076,-132222.34027323914
1129,1224377.4987881778
1132,0.0
1135,0.0
1299,180000.0
12,5487712.423929717
24,124772.48411455617
103,1388425.7274875076
140,588881.981905272
155,265474.2329129691
170,212605.08371773945
185,0.0
200,233628.98985583458
230,0.0
260,966738.6663398639
275,243947.07901128083
290,0.0
773,2919595.3855549755
2,1, 1, 1, 0,17, 0.00,60.00,Monday
476,-0.14677070294386086
477,20.000000000000065
324,0.0
327,92815.88440038111
329,0.0
756,0.0
770,3590990.9028560949
808,4603834.490841147
1074,0.0
1076,-129100.55237125667
1129,0.0
1132,0.0
1135,0.0
1299,180000.0
12,4832883.879883622
24,153230.21491511088
103,1705093.6680979355
140,530959.1640129502
155,0.0
170,444537.90231891
185,0.0
200,250723.79399162753
230,0.0
260,1178212.7496017093
275,297310.5025449985
290,0.0
773,4603834.490841147
2,1, 1, 1, 0,18, 0.00,60.00,Monday
476,-2.019300871964279
477,20.000000000000005
324,0.0
327,131108.48000405084
329,0.0
756,0.0
770,5072508.461492433
808,6503215.976272349
1074,1631909.307040082
1076,-133165.62894923849
1129,2470959.0842778377
1132,0.0
1135,0.0
1299,180000.0
12,8771340.598325178
24,203210.06438551093
103,2261252.418587706
140,521305.36103089709
155,0.0
170,724790.058128658
185,0.0
200,273516.86617268456
230,0.0
260,1601160.9161253998
275,404037.3496124338
290,0.0
773,6503215.976272349
2,1, 1, 1, 0,19, 0.00,60.00,Monday
476,-4.7943361721099209
477,20.0
324,0.0
327,169839.1774415148
329,0.0
756,0.0
770,6570975.917334871
808,8424328.099147272
1074,8491548.419381839
1076,-132541.8348521308
1129,7979103.19640199
1132,0.0
1135,0.0
1299,180000.0
12,15078153.569485913
24,249271.51164091205
103,2773808.5231531264
140,492343.95208473617
155,0.0
170,565336.2453403532
185,0.0
200,284913.40226321297
230,0.0
260,1903266.749356607
275,480270.8118034591
290,0.0
773,8424328.099147272
2,1, 1, 1, 0,20, 0.00,60.00,Monday
476,-5.501537113884488
477,20.00000000000017
324,0.0
327,178857.81585594378
329,0.0
756,0.0
770,6919901.628829035
808,8871668.75490902
1074,139737.79477731425
1076,-133753.19083821376
1129,1141213.29628515
1132,0.0
1135,0.0
1299,180000.0
12,8151360.891723288
24,252368.5332648852
103,2808271.1254794669
140,492343.95208473617
155,0.0
170,289916.02325146328
185,0.0
200,273516.86617268456
230,0.0
260,2024109.08264909
275,510764.1966798692
290,0.0
773,8871668.75490902
2,1, 1, 1, 0,21, 0.00,60.00,Monday
476,-5.983079443961313
477,20.00000000000006
324,0.0
327,185973.12569384633
329,0.0
756,0.0
770,7195188.699183186
808,9224600.896388699
1074,0.0
1076,-134986.86846426223
1129,0.0
1132,0.0
1135,0.0
1299,180000.0
12,6532097.690309776
24,209519.52997124717
103,2331462.0037226008
140,501997.75506678936
155,0.0
170,169117.68023001997
185,0.0
200,267818.59812742008
230,0.0
260,2144951.415941573
275,541257.5815562792
290,0.0
773,9224600.896388699
2,1, 1, 1, 0,22, 0.00,60.00,Monday
476,-6.137247263879097
477,20.000000000000143
324,0.0
327,207218.5899203203
329,0.0
756,0.0
770,8017162.968534753
808,10278414.062224042
1074,713829.911904514
1076,-131440.7279405172
1129,777449.2596224068
1132,0.0
1135,0.0
1299,180000.0
12,6596558.182790318
24,158078.74132085147
103,1759046.419378836
140,521305.36103089709
155,0.0
170,120798.34302144323
185,0.0
200,262120.3300821558
230,0.0
260,2084530.2492953318
275,526010.8891180742
290,0.0
773,10278414.062224042
2,1, 1, 1, 0,23, 0.00,60.00,Monday
476,-6.166481185857245
477,20.00000000000003
324,0.0
327,235069.66578181234
329,0.0
756,0.0
770,9094704.390452855
808,11659877.423657505
1074,191697.52879629387
1076,-135614.5221553188
1129,387069.255287231
1132,0.0
1135,0.0
1299,180000.0
12,5444202.974751892
24,136634.78396478998
103,1520425.3619911732
140,424767.33121036048
155,0.0
170,77310.93953372377
185,0.0
200,250723.79399162753
230,0.0
260,1782424.4160641244
275,449777.426927049
290,0.0
773,11659877.423657505
2,1, 1, 1, 0,24, 0.00,60.00,Monday
476,-5.070570119140042
477,19.999999999999856
324,0.0
327,287714.0701407936
329,0.0
756,0.0
770,11131484.822602712
808,14271134.387952196
1074,0.0
1076,-133915.734591791
1129,0.0
1132,0.0
1135,0.0
1299,180000.0
12,3647750.609568755
24,63480.3875582901
103,706388.1424039514
140,231691.27156928724
155,0.0
170,53151.2709294349
185,0.0
200,233628.98985583458
230,0.0
260,1510529.1661560375
275,381167.31095512627
290,0.0
773,14271134.387952196
2,2, 1, 2, 0, 1, 0.00,60.00,Tuesday
476,-5.0445153197222869
477,20.000000000000129
324,0.0
327,310218.3251701821
329,0.0
756,0.0
770,12002160.953182746
808,15387385.837413775
1074,0.0
1076,-132922.27285602448
1129,0.0
1132,0.0
1135,0.0
1299,180000.0
12,2744140.376329626
24,31520.721656648944
103,350751.86013675309
140,96538.02982053661
155,0.0
170,33823.53604600406
185,0.0
200,227930.72181057043
230,0.0
260,1208423.3329248299
275,304933.84876410107
290,0.0
773,15387385.837413775
2,2, 1, 2, 0, 2, 0.00,60.00,Tuesday
476,-5.629717250361013
477,19.99999999999997
324,0.0
327,315867.70278056056
329,0.0
756,0.0
770,12220731.984819489
808,15667605.108742936
1074,0.0
1076,-131936.26746425793
1129,0.0
1132,0.0
1135,0.0
1299,180000.0
12,2439065.452622494
24,18912.432993989292
103,210451.11608205099
140,57922.81789232189
155,0.0
170,33823.53604600406
185,0.0
200,222232.45376530625
230,0.0
260,1117791.5829554678
275,282063.8101067935
290,0.0
773,15667605.108742936
2,2, 1, 2, 0, 3, 0.00,60.00,Tuesday
476,-5.055388321135522
477,19.99999999999998
324,0.0
327,320566.00552543657
329,0.0
756,0.0
770,12402506.500299346
808,15900649.359358134
1074,0.0
1076,-130957.66115849537
1129,0.0
1132,0.0
1135,0.0
1299,180000.0
12,2327807.563836745
24,12608.288662659528
103,140300.74405470069
140,38615.211928214565
155,0.0
170,19327.734883430905
185,0.0
200,216534.18572004169
230,0.0
260,1117791.5829554678
275,282063.8101067935
290,0.0
773,15900649.359358134
2,2, 1, 2, 0, 4, 0.00,60.00,Tuesday
476,-6.6932829337858659
477,20.000000000000197
324,0.0
327,343443.5504381368
329,0.0
756,0.0
770,13287624.99259107
808,17035416.65716804
1074,0.0
1076,-129986.3971400079
1129,0.0
1132,0.0
1135,0.0
1299,180000.0
12,2287845.305197851
24,12608.288662659528
103,140300.74405470069
140,19307.60596410732
155,0.0
170,19327.734883430905
185,0.0
200,210835.9176747775
230,0.0
260,1087580.999632347
275,274440.4638876909
290,0.0
773,17035416.65716804
2,2, 1, 2, 0, 5, 0.00,60.00,Tuesday
476,-5.697009130613474
477,20.000000000000076
324,0.0
327,320561.9806948543
329,0.0
756,0.0
770,12402350.782017932
808,15900449.720535811
1074,0.0
1076,-129022.41906534952
1129,0.0
1132,0.0
1135,0.0
1299,180000.0
12,2196658.4878362568
24,14017.579698740728
103,155982.85494556168
140,38615.211928214565
155,0.0
170,33823.53604600406
185,0.0
200,205137.64962951334
230,0.0
260,996949.2496629846
275,251570.42523038339
290,0.0
773,15900449.720535811
2,2, 1, 2, 0, 6, 0.00,60.00,Tuesday
476,-6.184937988598389
477,20.000000000000214
324,0.0
327,323444.28029397726
329,0.0
756,0.0
770,12513865.224902604
808,16043416.955003337
1074,0.0
1076,-135425.10196826515
1129,1133159.9545860743
1132,0.0
1135,0.0
1299,180000.0
12,3781298.685902569
24,38462.59422001201
103,427998.6548311974
140,57922.81789232189
155,0.0
170,53151.2709294349
185,0.0
200,205137.64962951334
230,0.0
260,1087580.999632347
275,274440.4638876909
290,0.0
773,16043416.955003337
2,2, 1, 2, 0, 7, 0.00,60.00,Tuesday
476,-4.649709780267335
477,20.000000000000044
324,0.0
327,300207.44805734019
329,0.0
756,0.0
770,11614846.121523632
808,14890828.360927733
1074,0.0
1076,-135463.59303292549
1129,0.0
1132,0.0
1135,0.0
1299,180000.0
12,3693982.042402116
24,90299.55374739846
103,1004822.6938274336
140,154460.8477128584
155,0.0
170,120798.34302144323
185,0.0
200,216534.18572004169
230,0.0
260,1299055.0828941924
275,327803.8874214086
290,0.0
773,14890828.360927733
2,2, 1, 2, 0, 8, 0.00,60.00,Tuesday
476,-3.434623093567443
477,19.999999999999888
324,0.0
327,265152.24739353198
329,0.0
756,0.0
770,10258581.43154333
808,13152027.476337603
1074,836920.2900597707
1076,-131916.3750131264
1129,1182937.5231309443
1132,0.0
1135,0.0
1299,180000.0
12,5531927.065776117
24,114271.75744381984
103,1271577.215811016
140,308921.6954257168
155,0.0
170,202941.21627602424
185,0.0
200,227930.72181057043
230,0.0
260,1419897.4161866753
275,358297.2722978187
290,0.0
773,13152027.476337603
2,2, 1, 2, 0, 9, 0.00,60.00,Tuesday
476,-2.081743085154658
477,20.00000000000003
324,0.0
327,240603.70990298256
329,0.0
756,0.0
770,9308813.23856124
808,11934375.946873382
1074,0.0
1076,-136062.67033710108
1129,0.0
1132,0.0
1135,0.0
1299,180000.0
12,4099006.026856731
24,121438.7837423188
103,1351329.444621973
140,463382.54313857536
155,0.0
170,222268.95115945536
185,0.0
200,233628.98985583458
230,0.0
260,1027159.8329861055
275,259193.77144948589
290,0.0
773,11934375.946873382
2,2, 1, 2, 0,10, 0.00,60.00,Tuesday
476,1.795078667199948
477,19.999999999999934
324,0.0
327,159368.20571129339
329,0.0
756,0.0
770,6165860.300862503
808,7904949.103669876
1074,1844855.7507672222
1076,-132688.82998752615
1129,1249781.7482325645
1132,0.0
1135,0.0
1299,180000.0
12,5095253.492931526
24,124830.57748974454
103,1389072.1707901357
140,656458.6027796477
155,0.0
170,231932.81860117054
185,0.0
200,233628.98985583458
230,0.0
260,694843.4164317773
275,175336.9630393581
290,0.0
773,7904949.103669876
2,2, 1, 2, 0,11, 0.00,60.00,Tuesday
476,5.451826568031169
477,20.000000000000019
324,0.0
327,86477.23124879629
329,0.0
756,0.0
770,3345752.2139102208
808,4289425.915269515
1074,1231924.0596626127
1076,-132253.8316043184
1129,1208878.6937719708
1132,0.0
1135,0.0
1299,180000.0
12,5039979.579829259
24,121436.52005279417
103,1351304.25505556
140,752996.6326001843
155,0.0
170,202941.21627602424
185,0.0
200,227930.72181057043
230,0.0
260,725053.9997548979
275,182960.30925846063
290,0.0
773,4289425.915269515
2,2, 1, 2, 0,12, 0.00,60.00,Tuesday
476,9.025658325642065
477,20.0
324,0.0
327,48954.22817270888
329,0.0
756,0.0
770,1894009.7286172847
808,2428217.600791391
1074,0.0
1076,-132123.59712463196
1129,1133117.3675784569
1132,0.0
1135,0.0
1299,180000.0
12,4975117.261065201
24,116734.14550150292
103,1298977.8318571493
140,781958.0415463452
155,0.0
170,241596.68604288577
185,0.0
200,227930.72181057043
230,0.0
260,755264.5830780187
275,190583.65547756313
290,0.0
773,2428217.600791391
2,2, 1, 2, 0,13, 0.00,60.00,Tuesday
476,9.788518194486425
477,19.999999999999998
324,0.0
327,30294.690942680685
329,0.0
756,0.0
770,1172083.423896746
808,1502671.0562778796
1074,470169.3476145102
1076,-134148.15206103846
1129,0.0
1132,0.0
1135,0.0
1299,180000.0
12,3721987.9048051207
24,113340.08806455229
103,1261209.916122571
140,714381.4206719695
155,0.0
170,275420.22208889006
185,0.0
200,239327.25790109879
230,0.0
260,725053.9997548979
275,182960.30925846063
290,0.0
773,1502671.0562778796
2,2, 1, 2, 0,14, 0.00,60.00,Tuesday
476,9.950878970562667
477,20.0
324,0.0
327,25657.411315648733
329,0.0
756,0.0
770,992669.8562488007
808,1272653.6618574367
1074,0.0
1076,-131408.64831951049
1129,0.0
1132,0.0
1135,0.0
1299,180000.0
12,3735845.937226698
24,112341.33688407114
103,1250096.1529865785
140,646804.7997975946
155,0.0
170,222268.95115945536
185,0.0
200,239327.25790109879
230,0.0
260,845896.3330473809
275,213453.69413487073
290,0.0
773,1272653.6618574367
2,2, 1, 2, 0,15, 0.00,60.00,Tuesday
476,10.443032674878495
477,20.001493084993208
324,0.0
327,0.0
329,0.0
756,0.0
770,0.0
808,0.0
1074,0.0
1076,-130434.00079240612
1129,0.0
1132,0.0
1135,0.0
1299,0.0
12,3621532.992798267
24,114091.83433341766
103,1269575.0926888814
140,550266.7699770579
155,0.0
170,275420.22208889006
185,0.0
200,239327.25790109879
230,0.0
260,936528.0830167432
275,236323.73279217829
290,0.0
773,0.0
2,2, 1, 2, 0,16, 0.00,60.00,Tuesday
476,8.396471366234803
477,20.000004782463394
324,0.0
327,11746.28243306297
329,0.0
756,0.0
770,454456.6227215121
808,582636.6957968103
1074,754691.9203340332
1076,-133123.7479783683
1129,1178053.7937442344
1132,0.0
1135,0.0
1299,180000.0
12,5128800.088609353
24,124772.48411455617
103,1388425.7274875076
140,588881.981905272
155,0.0
170,212605.08371773945
185,0.0
200,233628.98985583458
230,0.0
260,966738.6663398639
275,243947.07901128083
290,0.0
773,582636.6957968103
2,2, 1, 2, 0,17, 0.00,60.00,Tuesday
476,7.177716876258795
477,20.00000004009913
324,0.0
327,30419.591902759446
329,0.0
756,0.0