Program Version,EnergyPlus, Version 9.3.0-baff08990c, YMD=2020.09.21 15:37
1,5,Environment Title[],Latitude[deg],Longitude[deg],Time Zone[],Elevation[m]
2,8,Day of Simulation[],Month[],Day of Month[],DST Indicator[1=yes 0=no],Hour[],StartMinute[],EndMinute[],DayType
3,5,Cumulative Day of Simulation[],Month[],Day of Month[],DST Indicator[1=yes 0=no],DayType  ! When Daily Meters Requested
4,2,Cumulative Days of Simulation[],Month[]  ! When Monthly Meters Requested
5,1,Cumulative Days of Simulation[] ! When Run Period Meters Requested
6,1,Calendar Year of Simulation[] ! When Annual Meters Requested
21,11,Electricity:Facility [J] !RunPeriod [Value,Min,Month,Day,Hour,Minute,Max,Month,Day,Hour,Minute]
833,11,Gas:Facility [J] !RunPeriod [Value,Min,Month,Day,Hour,Minute,Max,Month,Day,Hour,Minute]
112,11,interior lighting:InteriorLights:Electricity [J] !RunPeriod [Value,Min,Month,Day,Hour,Minute,Max,Month,Day,Hour,Minute]
33,11,ExteriorLights:Electricity [J] !RunPeriod [Value,Min,Month,Day,Hour,Minute,Max,Month,Day,Hour,Minute]
224,11,mech vent:InteriorEquipment:Electricity [J] !RunPeriod [Value,Min,Month,Day,Hour,Minute,Max,Month,Day,Hour,Minute]
272,11,whole house fan:InteriorEquipment:Electricity [J] !RunPeriod [Value,Min,Month,Day,Hour,Minute,Max,Month,Day,Hour,Minute]
209,11,fridge:InteriorEquipment:Electricity [J] !RunPeriod [Value,Min,Month,Day,Hour,Minute,Max,Month,Day,Hour,Minute]
194,11,dishwasher:InteriorEquipment:Electricity [J] !RunPeriod [Value,Min,Month,Day,Hour,Minute,Max,Month,Day,Hour,Minute]
164,11,clothes washer:InteriorEquipment:Electricity [J] !RunPeriod [Value,Min,Month,Day,Hour,Minute,Max,Month,Day,Hour,Minute]
149,11,clothes dryer:InteriorEquipment:Electricity [J] !RunPeriod [Value,Min,Month,Day,Hour,Minute,Max,Month,Day,Hour,Minute]
179,11,cooking range:InteriorEquipment:Electricity [J] !RunPeriod [Value,Min,Month,Day,Hour,Minute,Max,Month,Day,Hour,Minute]
257,11,misc tv:InteriorEquipment:Electricity [J] !RunPeriod [Value,Min,Month,Day,Hour,Minute,Max,Month,Day,Hour,Minute]
242,11,misc plug loads:InteriorEquipment:Electricity [J] !RunPeriod [Value,Min,Month,Day,Hour,Minute,Max,Month,Day,Hour,Minute]
17,1,Electricity:Facility [J] !Hourly
829,1,Gas:Facility [J] !Hourly
108,1,interior lighting:InteriorLights:Electricity [J] !Hourly
29,1,ExteriorLights:Electricity [J] !Hourly
220,1,mech vent:InteriorEquipment:Electricity [J] !Hourly
268,1,whole house fan:InteriorEquipment:Electricity [J] !Hourly
205,1,fridge:InteriorEquipment:Electricity [J] !Hourly
190,1,dishwasher:InteriorEquipment:Electricity [J] !Hourly
160,1,clothes washer:InteriorEquipment:Electricity [J] !Hourly
145,1,clothes dryer:InteriorEquipment:Electricity [J] !Hourly
175,1,cooking range:InteriorEquipment:Electricity [J] !Hourly
253,1,misc tv:InteriorEquipment:Electricity [J] !Hourly
238,1,misc plug loads:InteriorEquipment:Electricity [J] !Hourly
End of Data Dictionary
1,RUN PERIOD 1,  39.83,-104.65,  -7.00,1650.00
2,1, 1, 1, 0, 1, 0.00,60.00,Monday
17,2524830.443895088
29,133049.64677601076
108,350751.86013675309
145,72737.51299161969
160,0.0
175,33823.53604600406
190,0.0
205,227930.72181057043
220,0.0
238,1059487.2739995344
253,100800.96564864912
268,0.0
829,18743100.97347085
2,1, 1, 1, 0, 2, 0.00,60.00,Monday
17,2297618.9151106879
29,133049.64677601076
108,210451.11608205099
145,43642.507794971745
160,0.0
175,33823.53604600406
190,0.0
205,222232.45376530625
220,0.0
238,998945.1440567039
253,49038.30761285648
268,0.0
829,21823236.146588565
2,1, 1, 1, 0, 3, 0.00,60.00,Monday
17,2157347.5973520267
29,133049.64677601076
108,140300.74405470069
145,29095.005196647813
160,0.0
175,19327.734883430905
190,0.0
205,216534.18572004169
220,0.0
238,968674.0790852889
253,24519.15380642829
268,0.0
829,22816602.676137616
2,1, 1, 1, 0, 4, 0.00,60.00,Monday
17,2114442.7052213887
29,133049.64677601076
108,140300.74405470069
145,14547.502598323936
160,0.0
175,19327.734883430905
190,0.0
205,210835.9176747775
220,0.0
238,938403.0141138737
253,19070.452960555278
268,0.0
829,23484992.281559826
2,1, 1, 1, 0, 5, 0.00,60.00,Monday
17,2195180.006629962
29,133049.64677601076
108,155982.85494556168
145,29095.005196647813
160,0.0
175,33823.53604600406
190,0.0
205,205137.64962951334
220,0.0
238,968674.0790852889
253,29967.854652301197
268,0.0
829,23512713.633759533
2,1, 1, 1, 0, 6, 0.00,60.00,Monday
17,2508366.6022939167
29,107018.19414592155
108,427998.6548311974
145,43642.507794971745
160,0.0
175,53151.2709294349
190,0.0
205,205137.64962951334
220,0.0
238,998945.1440567039
253,49038.30761285648
268,0.0
829,22693157.588309867
2,1, 1, 1, 0, 7, 0.00,60.00,Monday
17,3362919.5991677606
29,101233.4268947908
108,1004822.6938274336
145,116380.02078659136
160,0.0
175,120798.34302144323
190,0.0
205,216534.18572004169
220,0.0
238,1120029.4039423646
253,79006.16226515768
268,0.0
829,21704465.167838776
2,1, 1, 1, 0, 8, 0.00,60.00,Monday
17,5145190.732903257
29,98341.04326922514
108,1271577.215811016
145,232760.0415731827
160,0.0
175,202941.21627602424
190,0.0
205,227930.72181057043
220,0.0
238,1271384.7287994417
253,108974.01691745919
268,0.0
829,20345951.054746767
2,1, 1, 1, 0, 9, 0.00,60.00,Monday
17,12398809.481456645
29,95448.65964365976
108,1351329.444621973
145,349140.06235977416
160,1960953.712395847
175,222268.95115945536
190,0.0
205,233628.98985583458
220,0.0
238,1301655.7937708568
253,133493.17072388737
268,0.0
829,17820431.678677016
2,1, 1, 1, 0,10, 0.00,60.00,Monday
17,4473064.36136539
29,80986.74151583265
108,1389072.1707901357
145,494615.0883430129
160,0.0
175,231932.81860117054
190,0.0
205,233628.98985583458
220,0.0
238,1301655.7937708568
253,158012.32453031557
268,0.0
829,12648519.033706194
2,1, 1, 1, 0,11, 0.00,60.00,Monday
17,4245501.638175486
29,63632.43976243985
108,1351304.25505556
145,567352.6013346326
160,0.0
175,202941.21627602424
190,0.0
205,227930.72181057043
220,0.0
238,1301655.7937708568
253,177082.77749087104
268,0.0
829,8884221.751085958
2,1, 1, 1, 0,12, 0.00,60.00,Monday
17,4237319.429722416
29,43385.75438348168
108,1298977.8318571493
145,589173.8552321184
160,0.0
175,241596.68604288577
190,0.0
205,227930.72181057043
220,0.0
238,1331926.858742272
253,196153.23045142654
268,0.0
829,6559438.832714561
2,1, 1, 1, 0,13, 0.00,60.00,Monday
17,5422768.952413372
29,34708.603506785286
108,1261209.916122571
145,538257.5961379845
160,0.0
175,275420.22208889006
190,0.0
205,239327.25790109879
220,0.0
238,1362197.923713687
253,207050.63214317195
268,0.0
829,5848132.347284944
2,1, 1, 1, 0,14, 0.00,60.00,Monday
17,4117572.512634265
29,31816.219881219924
108,1250096.1529865785
145,487341.3370438513
160,0.0
175,222268.95115945536
190,0.0
205,239327.25790109879
220,0.0
238,1362197.923713687
253,234294.1363725365
268,0.0
829,5641141.507211391
2,1, 1, 1, 0,15, 0.00,60.00,Monday
17,5260549.2968859779
29,31816.219881219924
108,1269575.0926888814
145,414603.8240522317
160,0.0
175,275420.22208889006
190,0.0
205,239327.25790109879
220,0.0
238,1331926.858742272
253,247915.8884872192
268,0.0
829,4734618.784236698
2,1, 1, 1, 0,16, 0.00,60.00,Monday
17,5862001.9482298609
29,34708.603506785286
108,1388425.7274875076
145,443698.82924887907
160,379560.32469745076
175,212605.08371773945
190,0.0
205,233628.98985583458
220,0.0
238,1392468.988685102
253,277883.7431395201
268,0.0
829,4407409.855217904
2,1, 1, 1, 0,17, 0.00,60.00,Monday
17,6088069.079557308
29,54955.288885743445
108,1705093.6680979355
145,400056.32145390738
160,0.0
175,444537.90231891
190,0.0
205,250723.79399162753
220,0.0
238,1453011.118627934
253,345992.50371293208
268,0.0
829,6168924.583204036
2,1, 1, 1, 0,18, 0.00,60.00,Monday
17,7341890.96711898
29,107018.19414592155
108,2261252.418587706
145,392782.5701547458
160,0.0
175,724790.058128658
190,0.0
205,273516.86617268456
220,0.0
238,1574095.3785135945
253,424998.6659780903
268,0.0
829,8630853.61260432
2,1, 1, 1, 0,19, 0.00,60.00,Monday
17,15055454.275199075
29,141726.79765270712
108,2773808.5231531264
145,370961.31625726
160,0.0
175,565336.2453403532
190,0.0
205,284913.40226321297
220,0.0
238,1604366.4434850096
253,572113.5888166594
268,0.0
829,10677009.854053276
2,1, 1, 1, 0,20, 0.00,60.00,Monday
17,7576692.298877554
29,188004.9356617542
108,2808271.1254794669
145,370961.31625726
160,0.0
175,289916.02325146328
190,0.0
205,273516.86617268456
220,0.0
238,1513553.2485707643
253,800959.0243433232
268,0.0
829,11509510.839653608
2,1, 1, 1, 0,21, 0.00,60.00,Monday
17,6237254.099005086
29,263206.9099264558
108,2331462.0037226008
145,378235.06755642159
160,0.0
175,169117.68023001997
190,0.0
205,267818.59812742008
220,0.0
238,1422740.0536565174
253,988939.2035259396
268,0.0
829,12063918.1679684
2,1, 1, 1, 0,22, 0.00,60.00,Monday
17,6753551.585453525
29,303700.2806843721
108,1759046.419378836
145,392782.5701547458
160,0.0
175,120798.34302144323
190,0.0
205,262120.3300821558
220,0.0
238,1362197.923713687
253,937176.5454901469
268,0.0
829,13324082.268234149
2,1, 1, 1, 0,23, 0.00,60.00,Monday
17,4681457.162199517
29,263206.9099264558
108,1520425.3619911732
145,320045.05716312609
160,0.0
175,77310.93953372377
190,0.0
205,250723.79399162753
220,0.0
238,1210842.5988566115
253,566664.8879707868
268,0.0
829,14955508.912678319
2,1, 1, 1, 0,24, 0.00,60.00,Monday
17,3213492.7334096038
29,182220.16841062316
108,706388.1424039514
145,174570.03117988676
160,0.0
175,53151.2709294349
190,0.0
205,233628.98985583458
220,0.0
238,1089758.3389709492
253,245191.53806428289
268,0.0
829,17839096.282339589
2,2, 1, 2, 0, 1, 0.00,60.00,Tuesday
17,2527073.1366938848
29,133049.64677601076
108,350751.86013675309
145,72737.51299161969
160,0.0
175,33823.53604600406
190,0.0
205,227930.72181057043
220,0.0
238,1059487.2739995344
253,100800.96564864912
268,0.0
829,18857872.688936704
2,2, 1, 2, 0, 2, 0.00,60.00,Tuesday
17,2245323.249173148
29,133049.64677601076
108,210451.11608205099
145,43642.507794971745
160,0.0
175,33823.53604600406
190,0.0
205,222232.45376530625
220,0.0
238,998945.1440567039
253,49038.30761285648
268,0.0
829,19146960.86969758
2,2, 1, 2, 0, 3, 0.00,60.00,Tuesday
17,2091364.0042907904
29,133049.64677601076
108,140300.74405470069
145,29095.005196647813
160,0.0
175,19327.734883430905
190,0.0
205,216534.18572004169
220,0.0
238,968674.0790852889
253,24519.15380642829
268,0.0
829,19439836.06222479
2,2, 1, 2, 0, 4, 0.00,60.00,Tuesday
17,2057558.8042608614
29,133049.64677601076
108,140300.74405470069
145,14547.502598323936
160,0.0
175,19327.734883430905
190,0.0
205,210835.9176747775
220,0.0
238,938403.0141138737
253,19070.452960555278
268,0.0
829,20573910.166732164
2,2, 1, 2, 0, 5, 0.00,60.00,Tuesday
17,3246948.0291484727
29,133049.64677601076
108,155982.85494556168
145,29095.005196647813
160,0.0
175,33823.53604600406
190,0.0
205,205137.64962951334
220,0.0
238,968674.0790852889
253,29967.854652301197
268,0.0
829,19349691.98169934
2,2, 1, 2, 0, 6, 0.00,60.00,Tuesday
17,2444478.1211551825
29,107018.19414592155
108,427998.6548311974
145,43642.507794971745
160,0.0
175,53151.2709294349
190,0.0
205,205137.64962951334
220,0.0
238,998945.1440567039
253,49038.30761285648
268,0.0
829,19423610.112732665
2,2, 1, 2, 0, 7, 0.00,60.00,Tuesday
17,3295145.5727900357
29,101233.4268947908
108,1004822.6938274336
145,116380.02078659136
160,0.0
175,120798.34302144323
190,0.0
205,216534.18572004169
220,0.0
238,1120029.4039423646
253,79006.16226515768
268,0.0
829,18236071.602936098
2,2, 1, 2, 0, 8, 0.00,60.00,Tuesday
17,5094882.720174069
29,98341.04326922514
108,1271577.215811016
145,232760.0415731827
160,0.0
175,202941.21627602424
190,0.0
205,227930.72181057043
220,0.0
238,1271384.7287994417
253,108974.01691745919
268,0.0
829,16273505.364515005
2,2, 1, 2, 0, 9, 0.00,60.00,Tuesday
17,4151443.5002082565
29,95448.65964365976
108,1351329.444621973
145,349140.06235977416
160,0.0
175,222268.95115945536
190,0.0
205,233628.98985583458
220,0.0
238,1301655.7937708568
253,133493.17072388737
268,0.0
829,14558426.02271119
2,2, 1, 2, 0,10, 0.00,60.00,Tuesday
17,5516339.92235055
29,80986.74151583265
108,1389072.1707901357
145,494615.0883430129
160,0.0
175,231932.81860117054
190,0.0
205,233628.98985583458
220,0.0
238,1301655.7937708568
253,158012.32453031557
268,0.0
829,10055146.209739879
2,2, 1, 2, 0,11, 0.00,60.00,Tuesday
17,5424417.183105914
29,63632.43976243985
108,1351304.25505556
145,567352.6013346326
160,0.0
175,202941.21627602424
190,0.0
205,227930.72181057043
220,0.0
238,1301655.7937708568
253,177082.77749087104
268,0.0
829,5966967.854981091
2,2, 1, 2, 0,12, 0.00,60.00,Tuesday
17,5283446.575544615
29,43385.75438348168
108,1298977.8318571493
145,589173.8552321184
160,0.0
175,241596.68604288577
190,0.0
205,227930.72181057043
220,0.0
238,1331926.858742272
253,196153.23045142654
268,0.0
829,3400378.5546180929
2,2, 1, 2, 0,13, 0.00,60.00,Tuesday
17,4138381.6351580519
29,34708.603506785286
108,1261209.916122571
145,538257.5961379845
160,0.0
175,275420.22208889006
190,0.0
205,239327.25790109879
220,0.0
238,1362197.923713687
253,207050.63214317195
268,0.0
829,2057754.5916237955
2,2, 1, 2, 0,14, 0.00,60.00,Tuesday
17,4040346.8310664647
29,31816.219881219924
108,1250096.1529865785
145,487341.3370438513
160,0.0
175,222268.95115945536
190,0.0
205,239327.25790109879
220,0.0
238,1362197.923713687
253,234294.1363725365
268,0.0
829,1689051.4321407306
2,2, 1, 2, 0,15, 0.00,60.00,Tuesday
17,3818139.1617740306
29,31816.219881219924
108,1269575.0926888814
145,414603.8240522317
160,0.0
175,275420.22208889006
190,0.0
205,239327.25790109879
220,0.0
238,1331926.858742272
253,247915.8884872192
268,0.0
829,386572.0474191736
2,2, 1, 2, 0,16, 0.00,60.00,Tuesday
17,5355647.75741514
29,34708.603506785286
108,1388425.7274875076
145,443698.82924887907
160,0.0
175,212605.08371773945
190,0.0
205,233628.98985583458
220,0.0
238,1392468.988685102
253,277883.7431395201
268,0.0
829,722097.6399194191
2,2, 1, 2, 0,17, 0.00,60.00,Tuesday
17,4870757.886818589
29,54955.288885743445
108,1705093.6680979355
145,400056.32145390738
160,0.0
175,444537.90231891
190,0.0
205,250723.79399162753
220,0.0
238,1453011.118627934
253,345992.50371293208
268,0.0
829,1862150.565454238
2,2, 1, 2, 0,18, 0.00,60.00,Tuesday
17,7164338.917358642
29,107018.19414592155
108,2261252.418587706
145,392782.5701547458
160,0.0
175,724790.058128658
190,0.0
205,273516.86617268456
220,0.0
238,1574095.3785135945
253,424998.6659780903
268,0.0
829,3098774.768935268
2,2, 1, 2, 0,19, 0.00,60.00,Tuesday
17,6587374.099805135
29,141726.79765270712
108,2773808.5231531264
145,370961.31625726
160,0.0
175,565336.2453403532
190,0.0
205,284913.40226321297
220,0.0
238,1604366.4434850096
253,572113.5888166594
268,0.0
829,4818093.03052357
2,2, 1, 2, 0,20, 0.00,60.00,Tuesday
17,6543161.709272638
29,188004.9356617542
108,2808271.1254794669
145,370961.31625726
160,0.0
175,289916.02325146328
190,0.0
205,273516.86617268456
220,0.0
238,1513553.2485707643
253,800959.0243433232
268,0.0
829,6037684.5567706529
2,2, 1, 2, 0,21, 0.00,60.00,Tuesday
17,6154535.596912284
29,263206.9099264558
108,2331462.0037226008
145,378235.06755642159
160,0.0
175,169117.68023001997
190,0.0
205,267818.59812742008
220,0.0
238,1422740.0536565174
253,988939.2035259396
268,0.0
829,7830728.320900966
2,2, 1, 2, 0,22, 0.00,60.00,Tuesday
17,5482112.255211746
29,303700.2806843721
108,1759046.419378836
145,392782.5701547458
160,0.0
175,120798.34302144323
190,0.0
205,262120.3300821558
220,0.0
238,1362197.923713687
253,937176.5454901469
268,0.0
829,8407672.726664624
2,2, 1, 2, 0,23, 0.00,60.00,Tuesday
17,5034038.644677329
29,263206.9099264558
108,1520425.3619911732
145,320045.05716312609
160,0.0
175,77310.93953372377
190,0.0
205,250723.79399162753
220,0.0
238,1210842.5988566115
253,566664.8879707868
268,0.0
829,8723916.234066297
2,2, 1, 2, 0,24, 0.00,60.00,Tuesday
17,8563975.275711984
29,182220.16841062316
108,706388.1424039514
145,174570.03117988676
160,0.0
175,53151.2709294349
190,0.0
205,233628.98985583458
220,0.0
238,1089758.3389709492
253,245191.53806428289
268,0.0
829,10812430.712432364
2,3, 1, 3, 0, 1, 0.00,60.00,Wednesday
17,2396848.127065317
29,133049.64677601076
108,350751.86013675309
145,72737.51299161969
160,0.0
175,33823.53604600406
190,0.0
205,227930.72181057043
220,0.0
238,1059487.2739995344
253,100800.96564864912
268,0.0
829,12193496.82807498
2,3, 1, 3, 0, 2, 0.00,60.00,Wednesday
17,2135073.4733579808
29,133049.64677601076
108,210451.11608205099
145,43642.507794971745
160,0.0
175,33823.53604600406
190,0.0
205,222232.45376530625
220,0.0
238,998945.1440567039
253,49038.30761285648
268,0.0
829,13504834.624487954
2,3, 1, 3, 0, 3, 0.00,60.00,Wednesday
17,1993873.8986758807
29,133049.64677601076
108,140300.74405470069
145,29095.005196647813
160,0.0
175,19327.734883430905
190,0.0
205,216534.18572004169
220,0.0
238,968674.0790852889
253,24519.15380642829
268,0.0
829,14450696.81480995
2,3, 1, 3, 0, 4, 0.00,60.00,Wednesday
17,3110373.119769276
29,133049.64677601076
108,140300.74405470069
145,14547.502598323936
160,0.0
175,19327.734883430905
190,0.0
205,210835.9176747775
220,0.0
238,938403.0141138737
253,19070.452960555278
268,0.0
829,15519976.621106025
2,3, 1, 3, 0, 5, 0.00,60.00,Wednesday
17,2051083.8675888712
29,133049.64677601076
108,155982.85494556168
145,29095.005196647813
160,0.0
175,33823.53604600406
190,0.0
205,205137.64962951334
220,0.0
238,968674.0790852889
253,29967.854652301197
268,0.0
829,16138470.902598674
2,3, 1, 3, 0, 6, 0.00,60.00,Wednesday
17,2384060.35856631
29,107018.19414592155
108,427998.6548311974
145,43642.507794971745
160,0.0
175,53151.2709294349
190,0.0
205,205137.64962951334
220,0.0
238,998945.1440567039
253,49038.30761285648
268,0.0
829,16331679.617100537
2,3, 1, 3, 0, 7, 0.00,60.00,Wednesday
17,3240177.327906265
29,101233.4268947908
108,1004822.6938274336
145,116380.02078659136
160,0.0
175,120798.34302144323
190,0.0
205,216534.18572004169
220,0.0
238,1120029.4039423646
253,79006.16226515768
268,0.0
829,15423024.820584594
2,3, 1, 3, 0, 8, 0.00,60.00,Wednesday
17,3888969.5855027965
29,98341.04326922514
108,1271577.215811016
145,232760.0415731827
160,0.0
175,202941.21627602424
190,0.0
205,227930.72181057043
220,0.0
238,1271384.7287994417
253,108974.01691745919
268,0.0
829,15099977.743984107
2,3, 1, 3, 0, 9, 0.00,60.00,Wednesday
17,4089899.8306368498
29,95448.65964365976
108,1351329.444621973
145,349140.06235977416
160,0.0
175,222268.95115945536
190,0.0
205,233628.98985583458
220,0.0
238,1301655.7937708568
253,133493.17072388737
268,0.0
829,11408876.277617086
2,3, 1, 3, 0,10, 0.00,60.00,Wednesday
17,18010025.976943669
29,80986.74151583265
108,1389072.1707901357
145,494615.0883430129
160,0.0
175,231932.81860117054
190,0.0
205,233628.98985583458
220,0.0
238,1301655.7937708568
253,158012.32453031557
268,0.0
829,9262511.98998178
2,3, 1, 3, 0,11, 0.00,60.00,Wednesday
17,13285422.420320914
29,63632.43976243985
108,1351304.25505556
145,567352.6013346326
160,0.0
175,202941.21627602424
190,0.0
205,227930.72181057043
220,0.0
238,1301655.7937708568
253,177082.77749087104
268,0.0
829,6077861.014002939
2,3, 1, 3, 0,12, 0.00,60.00,Wednesday
17,5217071.975781657
29,43385.75438348168
108,1298977.8318571493
145,589173.8552321184
160,0.0
175,241596.68604288577
190,0.0
205,227930.72181057043
220,0.0
238,1331926.858742272
253,196153.23045142654
268,0.0
829,4150887.371267273
2,3, 1, 3, 0,13, 0.00,60.00,Wednesday
17,4174498.1047972685
29,34708.603506785286
108,1261209.916122571
145,538257.5961379845
160,0.0
175,275420.22208889006
190,0.0
205,239327.25790109879
220,0.0
238,1362197.923713687
253,207050.63214317195
268,0.0
829,3906045.708127865
2,3, 1, 3, 0,14, 0.00,60.00,Wednesday
17,4098555.5244482408
29,31816.219881219924
108,1250096.1529865785
145,487341.3370438513
160,0.0
175,222268.95115945536
190,0.0
205,239327.25790109879
220,0.0
238,1362197.923713687
253,234294.1363725365
268,0.0
829,4667930.928270266
2,3, 1, 3, 0,15, 0.00,60.00,Wednesday
17,5196618.339223478
29,31816.219881219924
108,1269575.0926888814
145,414603.8240522317
160,0.0
175,275420.22208889006
190,0.0
205,239327.25790109879
220,0.0
238,1331926.858742272
253,247915.8884872192
268,0.0
829,3681700.647895174
2,3, 1, 3, 0,16, 0.00,60.00,Wednesday
17,4275656.70427961
29,34708.603506785286
108,1388425.7274875076
145,443698.82924887907
160,0.0
175,212605.08371773945
190,0.0
205,233628.98985583458
220,0.0
238,1392468.988685102
253,277883.7431395201
268,0.0
829,5743810.761204638
2,3, 1, 3, 0,17, 0.00,60.00,Wednesday
17,4992107.178850565
29,54955.288885743445
108,1705093.6680979355
145,400056.32145390738
160,0.0
175,444537.90231891
190,0.0
205,250723.79399162753
220,0.0
238,1453011.118627934
253,345992.50371293208
268,0.0
829,8072304.013376523
2,3, 1, 3, 0,18, 0.00,60.00,Wednesday
17,6129761.365248818
29,107018.19414592155
108,2261252.418587706
145,392782.5701547458
160,0.0
175,724790.058128658
190,0.0
205,273516.86617268456
220,0.0
238,1574095.3785135945
253,424998.6659780903
268,0.0
829,9790309.708894292
2,3, 1, 3, 0,19, 0.00,60.00,Wednesday
17,7891519.613378573
29,141726.79765270712
108,2773808.5231531264
145,370961.31625726
160,0.0
175,565336.2453403532
190,0.0
205,284913.40226321297
220,0.0
238,1604366.4434850096
253,572113.5888166594
268,0.0
829,10009222.457290052
2,3, 1, 3, 0,20, 0.00,60.00,Wednesday
17,16056051.22626538
29,188004.9356617542
108,2808271.1254794669
145,370961.31625726
160,0.0
175,289916.02325146328
190,2805521.211894657
205,273516.86617268456
220,0.0
238,1513553.2485707643
253,800959.0243433232
268,0.0
829,11094862.287842434
2,3, 1, 3, 0,21, 0.00,60.00,Wednesday
17,6269055.587447166
29,263206.9099264558
108,2331462.0037226008
145,378235.06755642159
160,0.0
175,169117.68023001997
190,0.0
205,267818.59812742008
220,0.0
238,1422740.0536565174
253,988939.2035259396
268,0.0
829,13691386.44397285
2,3, 1, 3, 0,22, 0.00,60.00,Wednesday
17,5627711.276619737
29,303700.2806843721
108,1759046.419378836
145,392782.5701547458
160,0.0
175,120798.34302144323
190,0.0
205,262120.3300821558
220,0.0
238,1362197.923713687
253,937176.5454901469
268,0.0
829,15858826.743885259
2,3, 1, 3, 0,23, 0.00,60.00,Wednesday
17,5907672.902395075
29,263206.9099264558
108,1520425.3619911732
145,320045.05716312609
160,0.0
175,77310.93953372377
190,0.0
205,250723.79399162753
220,0.0
238,1210842.5988566115
253,566664.8879707868
268,0.0
829,18407068.477196494
2,3, 1, 3, 0,24, 0.00,60.00,Wednesday
17,3270946.958442587
29,182220.16841062316
108,706388.1424039514
145,174570.03117988676
160,0.0
175,53151.2709294349
190,0.0
205,233628.98985583458
220,0.0
238,1089758.3389709492
253,245191.53806428289
268,0.0
829,20779365.217672696
2,4, 1, 4, 0, 1, 0.00,60.00,Thursday
17,2600838.6527849968
29,133049.64677601076
108,350751.86013675309
145,72737.51299161969
160,0.0
175,33823.53604600406
190,0.0
205,227930.72181057043
220,0.0
238,1059487.2739995344
253,100800.96564864912
268,0.0
829,22632885.846576498
2,4, 1, 4, 0, 2, 0.00,60.00,Thursday
17,3539323.709989781
29,133049.64677601076
108,210451.11608205099
145,43642.507794971745
160,0.0
175,33823.53604600406
190,0.0
205,222232.45376530625
220,0.0
238,998945.1440567039
253,49038.30761285648
268,0.0
829,25598855.30358866
2,4, 1, 4, 0, 3, 0.00,60.00,Thursday
17,2236742.8328629976
29,133049.64677601076
108,140300.74405470069
145,29095.005196647813
160,0.0
175,19327.734883430905
190,0.0
205,216534.18572004169
220,0.0
238,968674.0790852889
253,24519.15380642829
268,0.0
829,26879721.52339992
2,4, 1, 4, 0, 4, 0.00,60.00,Thursday
17,2181127.6357691178
29,133049.64677601076
108,140300.74405470069
145,14547.502598323936
160,0.0
175,19327.734883430905
190,0.0
205,210835.9176747775
220,0.0
238,938403.0141138737
253,19070.452960555278
268,0.0
829,26897650.43910651
2,4, 1, 4, 0, 5, 0.00,60.00,Thursday
17,3430389.220607726
29,133049.64677601076
108,155982.85494556168
145,29095.005196647813
160,0.0
175,33823.53604600406
190,0.0
205,205137.64962951334
220,0.0
238,968674.0790852889
253,29967.854652301197
268,0.0
829,26895970.728505188
2,4, 1, 4, 0, 6, 0.00,60.00,Thursday
17,2582815.0199200406
29,107018.19414592155
108,427998.6548311974
145,43642.507794971745
160,0.0
175,53151.2709294349
190,0.0
205,205137.64962951334
220,0.0
238,998945.1440567039
253,49038.30761285648
268,0.0
829,26503118.81405316
2,4, 1, 4, 0, 7, 0.00,60.00,Thursday
17,3429859.192340189
29,101233.4268947908
108,1004822.6938274336
145,116380.02078659136
160,0.0
175,120798.34302144323
190,0.0
205,216534.18572004169
220,0.0
238,1120029.4039423646
253,79006.16226515768
268,0.0
829,25130155.902257988
2,4, 1, 4, 0, 8, 0.00,60.00,Thursday
17,5212783.307810078
29,98341.04326922514
108,1271577.215811016
145,232760.0415731827
160,0.0
175,202941.21627602424
190,0.0
205,227930.72181057043
220,0.0
238,1271384.7287994417
253,108974.01691745919
268,0.0
829,22200491.10417972
2,4, 1, 4, 0, 9, 0.00,60.00,Thursday
17,15112465.603079666
29,95448.65964365976
108,1351329.444621973
145,349140.06235977416
160,0.0
175,222268.95115945536
190,0.0
205,233628.98985583458
220,0.0
238,1301655.7937708568
253,133493.17072388737
268,0.0
829,19794960.08208168
2,4, 1, 4, 0,10, 0.00,60.00,Thursday
17,6791437.100455504
29,80986.74151583265
108,1389072.1707901357
145,494615.0883430129
160,0.0
175,231932.81860117054
190,0.0
205,233628.98985583458
220,0.0
238,1301655.7937708568
253,158012.32453031557
268,0.0
829,15376472.274778719
2,4, 1, 4, 0,11, 0.00,60.00,Thursday
17,5454343.499281855
29,63632.43976243985
108,1351304.25505556
145,567352.6013346326
160,0.0
175,202941.21627602424
190,0.0
205,227930.72181057043
220,0.0
238,1301655.7937708568
253,177082.77749087104
268,0.0
829,12656610.417861358
2,4, 1, 4, 0,12, 0.00,60.00,Thursday
17,8978374.741243255
29,43385.75438348168
108,1298977.8318571493
145,589173.8552321184
160,0.0
175,241596.68604288577
190,0.0
205,227930.72181057043
220,0.0
238,1331926.858742272
253,196153.23045142654
268,0.0
829,11408037.84867564
2,4, 1, 4, 0,13, 0.00,60.00,Thursday
17,4275675.191061896
29,34708.603506785286
108,1261209.916122571
145,538257.5961379845
160,0.0
175,275420.22208889006
190,0.0
205,239327.25790109879
220,0.0
238,1362197.923713687
253,207050.63214317195
268,0.0
829,9083869.33277201
2,4, 1, 4, 0,14, 0.00,60.00,Thursday
17,4155866.113922853
29,31816.219881219924
108,1250096.1529865785
145,487341.3370438513
160,0.0
175,222268.95115945536
190,0.0
205,239327.25790109879
220,0.0
238,1362197.923713687
253,234294.1363725365
268,0.0
829,7600849.191480541
2,4, 1, 4, 0,15, 0.00,60.00,Thursday
17,5112275.205064711
29,31816.219881219924
108,1269575.0926888814
145,414603.8240522317
160,0.0
175,275420.22208889006
190,0.0
205,239327.25790109879
220,0.0
238,1331926.858742272
253,247915.8884872192
268,0.0
829,6191729.467671215
2,4, 1, 4, 0,16, 0.00,60.00,Thursday
17,5280075.564425137
29,34708.603506785286
108,1388425.7274875076
145,443698.82924887907
160,0.0
175,212605.08371773945
190,0.0
205,233628.98985583458
220,0.0
238,1392468.988685102
253,277883.7431395201
268,0.0
829,6623166.833519791
2,4, 1, 4, 0,17, 0.00,60.00,Thursday
17,4952182.721235184
29,54955.288885743445
108,1705093.6680979355
145,400056.32145390738
160,0.0
175,444537.90231891
190,0.0
205,250723.79399162753
220,0.0
238,1453011.118627934
253,345992.50371293208
268,0.0
829,6029135.86657551
2,4, 1, 4, 0,18, 0.00,60.00,Thursday
17,7222863.317476606
29,107018.19414592155
108,2261252.418587706
145,392782.5701547458
160,0.0
175,724790.058128658
190,0.0
205,273516.86617268456
220,0.0
238,1574095.3785135945
253,424998.6659780903
268,0.0
829,5869686.776925155
2,4, 1, 4, 0,19, 0.00,60.00,Thursday
17,6606954.64147585
29,141726.79765270712
108,2773808.5231531264
145,370961.31625726
160,0.0
175,565336.2453403532
190,0.0
205,284913.40226321297
220,0.0
238,1604366.4434850096
253,572113.5888166594
268,0.0
829,5820143.939370504
2,4, 1, 4, 0,20, 0.00,60.00,Thursday
17,9128237.543790633
29,188004.9356617542
108,2808271.1254794669
145,370961.31625726
160,0.0
175,289916.02325146328
190,0.0
205,273516.86617268456
220,0.0
238,1513553.2485707643
253,800959.0243433232
268,0.0
829,5459334.701244927
2,4, 1, 4, 0,21, 0.00,60.00,Thursday
17,6119862.775803848
29,263206.9099264558
108,2331462.0037226008
145,378235.06755642159
160,0.0
175,169117.68023001997
190,0.0
205,267818.59812742008
220,0.0
238,1422740.0536565174
253,988939.2035259396
268,0.0
829,6056317.148407236
2,4, 1, 4, 0,22, 0.00,60.00,Thursday
17,5446551.29039703
29,303700.2806843721
108,1759046.419378836
145,392782.5701547458
160,0.0
175,120798.34302144323
190,0.0
205,262120.3300821558
220,0.0
238,1362197.923713687
253,937176.5454901469
268,0.0
829,6587810.043021104
2,4, 1, 4, 0,23, 0.00,60.00,Thursday
17,5750026.598241672
29,263206.9099264558
108,1520425.3619911732
145,320045.05716312609
160,0.0
175,77310.93953372377
190,0.0
205,250723.79399162753
220,0.0
238,1210842.5988566115
253,566664.8879707868
268,0.0
829,7630994.610943403
2,4, 1, 4, 0,24, 0.00,60.00,Thursday
17,2828999.1496186198
29,182220.16841062316
108,706388.1424039514
145,174570.03117988676
160,0.0
175,53151.2709294349
190,0.0
205,233628.98985583458
220,0.0
238,1089758.3389709492
253,245191.53806428289
268,0.0
829,7373962.838273641
2,5, 1, 5, 0, 1, 0.00,60.00,Friday
17,3483297.373249681
29,133049.64677601076
108,350751.86013675309
145,72737.51299161969
160,0.0
175,33823.53604600406
190,0.0
205,227930.72181057043
220,0.0
238,1059487.2739995344
253,100800.96564864912
268,0.0
829,9051654.959952502
2,5, 1, 5, 0, 2, 0.00,60.00,Friday
17,1848405.253348381
29,133049.64677601076
108,210451.11608205099
145,43642.507794971745
160,0.0
175,33823.53604600406
190,0.0
205,222232.45376530625
220,0.0
238,998945.1440567039
253,49038.30761285648
268,0.0
829,8045997.550252751
2,5, 1, 5, 0, 3, 0.00,60.00,Friday
17,1682324.8808022917
29,133049.64677601076
108,140300.74405470069
145,29095.005196647813
160,0.0
175,19327.734883430905
190,0.0
205,216534.18572004169
220,0.0
238,968674.0790852889
253,24519.15380642829
268,0.0
829,7718563.703533211
2,5, 1, 5, 0, 4, 0.00,60.00,Friday
17,1812977.3801831708
29,133049.64677601076
108,140300.74405470069
145,14547.502598323936
160,0.0
175,19327.734883430905
190,0.0
205,210835.9176747775
220,0.0
238,938403.0141138737
253,19070.452960555278
268,0.0
829,8057247.328406132
2,5, 1, 5, 0, 5, 0.00,60.00,Friday
17,1890976.9843909965
29,133049.64677601076
108,155982.85494556168