Program Version,EnergyPlus, Version 9.2.0-921312fa1d, YMD=2019.12.03 16:44
1,5,Environment Title[],Latitude[deg],Longitude[deg],Time Zone[],Elevation[m]
2,8,Day of Simulation[],Month[],Day of Month[],DST Indicator[1=yes 0=no],Hour[],StartMinute[],EndMinute[],DayType
3,5,Cumulative Day of Simulation[],Month[],Day of Month[],DST Indicator[1=yes 0=no],DayType  ! When Daily Report Variables Requested
4,2,Cumulative Days of Simulation[],Month[]  ! When Monthly Report Variables Requested
5,1,Cumulative Days of Simulation[] ! When Run Period Report Variables Requested
6,1,Calendar Year of Simulation[] ! When Annual Report Variables Requested
307,9,EMS,central ac supply fan cool disaggregate [J] !Monthly [Value,Min,Day,Hour,Minute,Max,Day,Hour,Minute]
308,11,EMS,central ac supply fan cool disaggregate [J] !RunPeriod [Value,Min,Month,Day,Hour,Minute,Max,Month,Day,Hour,Minute]
309,11,EMS,clg_ceilings_outvar [J] !RunPeriod [Value,Min,Month,Day,Hour,Minute,Max,Month,Day,Hour,Minute]
310,11,EMS,clg_doors_outvar [J] !RunPeriod [Value,Min,Month,Day,Hour,Minute,Max,Month,Day,Hour,Minute]
311,11,EMS,clg_ducts_outvar [J] !RunPeriod [Value,Min,Month,Day,Hour,Minute,Max,Month,Day,Hour,Minute]
312,11,EMS,clg_floors_outvar [J] !RunPeriod [Value,Min,Month,Day,Hour,Minute,Max,Month,Day,Hour,Minute]
313,11,EMS,clg_foundation_walls_outvar [J] !RunPeriod [Value,Min,Month,Day,Hour,Minute,Max,Month,Day,Hour,Minute]
314,11,EMS,clg_infil_outvar [J] !RunPeriod [Value,Min,Month,Day,Hour,Minute,Max,Month,Day,Hour,Minute]
315,11,EMS,clg_internal_mass_outvar [J] !RunPeriod [Value,Min,Month,Day,Hour,Minute,Max,Month,Day,Hour,Minute]
316,11,EMS,clg_intgains_outvar [J] !RunPeriod [Value,Min,Month,Day,Hour,Minute,Max,Month,Day,Hour,Minute]
317,11,EMS,clg_mechvent_outvar [J] !RunPeriod [Value,Min,Month,Day,Hour,Minute,Max,Month,Day,Hour,Minute]
318,11,EMS,clg_natvent_outvar [J] !RunPeriod [Value,Min,Month,Day,Hour,Minute,Max,Month,Day,Hour,Minute]
319,11,EMS,clg_rim_joists_outvar [J] !RunPeriod [Value,Min,Month,Day,Hour,Minute,Max,Month,Day,Hour,Minute]
320,11,EMS,clg_roofs_outvar [J] !RunPeriod [Value,Min,Month,Day,Hour,Minute,Max,Month,Day,Hour,Minute]
321,11,EMS,clg_skylights_outvar [J] !RunPeriod [Value,Min,Month,Day,Hour,Minute,Max,Month,Day,Hour,Minute]
322,11,EMS,clg_slabs_outvar [J] !RunPeriod [Value,Min,Month,Day,Hour,Minute,Max,Month,Day,Hour,Minute]
323,11,EMS,clg_walls_outvar [J] !RunPeriod [Value,Min,Month,Day,Hour,Minute,Max,Month,Day,Hour,Minute]
324,11,EMS,clg_windows_outvar [J] !RunPeriod [Value,Min,Month,Day,Hour,Minute,Max,Month,Day,Hour,Minute]
325,11,EMS,furnace supply fan heat disaggregate [J] !RunPeriod [Value,Min,Month,Day,Hour,Minute,Max,Month,Day,Hour,Minute]
326,9,EMS,furnace supply fan heat disaggregate [J] !Monthly [Value,Min,Day,Hour,Minute,Max,Day,Hour,Minute]
327,11,EMS,htg_ceilings_outvar [J] !RunPeriod [Value,Min,Month,Day,Hour,Minute,Max,Month,Day,Hour,Minute]
328,11,EMS,htg_doors_outvar [J] !RunPeriod [Value,Min,Month,Day,Hour,Minute,Max,Month,Day,Hour,Minute]
329,11,EMS,htg_ducts_outvar [J] !RunPeriod [Value,Min,Month,Day,Hour,Minute,Max,Month,Day,Hour,Minute]
330,11,EMS,htg_floors_outvar [J] !RunPeriod [Value,Min,Month,Day,Hour,Minute,Max,Month,Day,Hour,Minute]
331,11,EMS,htg_foundation_walls_outvar [J] !RunPeriod [Value,Min,Month,Day,Hour,Minute,Max,Month,Day,Hour,Minute]
332,11,EMS,htg_infil_outvar [J] !RunPeriod [Value,Min,Month,Day,Hour,Minute,Max,Month,Day,Hour,Minute]
333,11,EMS,htg_internal_mass_outvar [J] !RunPeriod [Value,Min,Month,Day,Hour,Minute,Max,Month,Day,Hour,Minute]
334,11,EMS,htg_intgains_outvar [J] !RunPeriod [Value,Min,Month,Day,Hour,Minute,Max,Month,Day,Hour,Minute]
335,11,EMS,htg_mechvent_outvar [J] !RunPeriod [Value,Min,Month,Day,Hour,Minute,Max,Month,Day,Hour,Minute]
336,11,EMS,htg_natvent_outvar [J] !RunPeriod [Value,Min,Month,Day,Hour,Minute,Max,Month,Day,Hour,Minute]
337,11,EMS,htg_rim_joists_outvar [J] !RunPeriod [Value,Min,Month,Day,Hour,Minute,Max,Month,Day,Hour,Minute]
338,11,EMS,htg_roofs_outvar [J] !RunPeriod [Value,Min,Month,Day,Hour,Minute,Max,Month,Day,Hour,Minute]
339,11,EMS,htg_skylights_outvar [J] !RunPeriod [Value,Min,Month,Day,Hour,Minute,Max,Month,Day,Hour,Minute]
340,11,EMS,htg_slabs_outvar [J] !RunPeriod [Value,Min,Month,Day,Hour,Minute,Max,Month,Day,Hour,Minute]
341,11,EMS,htg_walls_outvar [J] !RunPeriod [Value,Min,Month,Day,Hour,Minute,Max,Month,Day,Hour,Minute]
342,11,EMS,htg_windows_outvar [J] !RunPeriod [Value,Min,Month,Day,Hour,Minute,Max,Month,Day,Hour,Minute]
343,11,EMS,water heater EC adjustment outvar [J] !RunPeriod [Value,Min,Month,Day,Hour,Minute,Max,Month,Day,Hour,Minute]
448,1,LIVING,Zone Mean Air Temperature [C] !Hourly
449,1,VENTED ATTIC,Zone Mean Air Temperature [C] !Hourly
717,11,CENTRAL AC CLG COIL,Cooling Coil Electric Energy [J] !RunPeriod [Value,Min,Month,Day,Hour,Minute,Max,Month,Day,Hour,Minute]
743,11,FURNACE HTG COIL,Heating Coil Gas Energy [J] !RunPeriod [Value,Min,Month,Day,Hour,Minute,Max,Month,Day,Hour,Minute]
1008,11,WATER USE CONNECTIONS 1,Water Use Connections Plant Hot Water Energy [J] !RunPeriod [Value,Min,Month,Day,Hour,Minute,Max,Month,Day,Hour,Minute]
1045,11,WATER HEATER,Water Heater Heat Loss Energy [J] !RunPeriod [Value,Min,Month,Day,Hour,Minute,Max,Month,Day,Hour,Minute]
1061,11,WATER HEATER,Water Heater Electric Energy [J] !RunPeriod [Value,Min,Month,Day,Hour,Minute,Max,Month,Day,Hour,Minute]
1099,11,WATER HEATER,Water Heater Off Cycle Parasitic Electric Energy [J] !RunPeriod [Value,Min,Month,Day,Hour,Minute,Max,Month,Day,Hour,Minute]
1101,11,WATER HEATER,Water Heater On Cycle Parasitic Electric Energy [J] !RunPeriod [Value,Min,Month,Day,Hour,Minute,Max,Month,Day,Hour,Minute]
1264,11,CENTRAL AC CLG COIL,Cooling Coil Crankcase Heater Electric Energy [J] !RunPeriod [Value,Min,Month,Day,Hour,Minute,Max,Month,Day,Hour,Minute]
End of Data Dictionary
1,RUN PERIOD 1,  39.83,-104.65,  -7.00,1650.00
2,1, 1, 1, 0, 1, 0.00,60.00,Monday
448,20.005130751498386
449,-12.824760097185504
2,1, 1, 1, 0, 2, 0.00,60.00,Monday
448,20.00024378978291
449,-13.593205727888418
2,1, 1, 1, 0, 3, 0.00,60.00,Monday
448,20.000012787335625
449,-13.956157450056223
2,1, 1, 1, 0, 4, 0.00,60.00,Monday
448,20.00000072226932
449,-15.102000346710119
2,1, 1, 1, 0, 5, 0.00,60.00,Monday
448,20.000000042332404
449,-15.198706341040749
2,1, 1, 1, 0, 6, 0.00,60.00,Monday
448,20.000000002455655
449,-14.401016885730602
2,1, 1, 1, 0, 7, 0.00,60.00,Monday
448,20.00000000013835
449,-13.392185815953747
2,1, 1, 1, 0, 8, 0.00,60.00,Monday
448,20.00000000000736
449,-8.916572303548254
2,1, 1, 1, 0, 9, 0.00,60.00,Monday
448,20.00000000000046
449,-6.914423706449445
2,1, 1, 1, 0,10, 0.00,60.00,Monday
448,20.00000000000003
449,-2.795356466496916
2,1, 1, 1, 0,11, 0.00,60.00,Monday
448,19.999999999999994
449,1.1798141738784596
2,1, 1, 1, 0,12, 0.00,60.00,Monday
448,20.00000000000002
449,2.968816802300485
2,1, 1, 1, 0,13, 0.00,60.00,Monday
448,20.000000000000033
449,4.52563151054257
2,1, 1, 1, 0,14, 0.00,60.00,Monday
448,20.0
449,3.4897117172577318
2,1, 1, 1, 0,15, 0.00,60.00,Monday
448,19.999999999999998
449,4.0463286713373789
2,1, 1, 1, 0,16, 0.00,60.00,Monday
448,19.999999999999998
449,2.438496695074464
2,1, 1, 1, 0,17, 0.00,60.00,Monday
448,19.99999999999998
449,-0.14677511128112548
2,1, 1, 1, 0,18, 0.00,60.00,Monday
448,20.000000000000019
449,-2.0193027187255385
2,1, 1, 1, 0,19, 0.00,60.00,Monday
448,20.000000000000026
449,-4.7943370536908269
2,1, 1, 1, 0,20, 0.00,60.00,Monday
448,20.00000000000017
449,-5.5015363821018818
2,1, 1, 1, 0,21, 0.00,60.00,Monday
448,19.99999999999999
449,-5.983075361380338
2,1, 1, 1, 0,22, 0.00,60.00,Monday
448,20.0
449,-6.137242210549032
2,1, 1, 1, 0,23, 0.00,60.00,Monday
448,20.000000000000108
449,-6.166477641439939
2,1, 1, 1, 0,24, 0.00,60.00,Monday
448,20.00000000000003
449,-5.070569135111053
2,2, 1, 2, 0, 1, 0.00,60.00,Tuesday
448,20.00000000000014
449,-5.044514072496365
2,2, 1, 2, 0, 2, 0.00,60.00,Tuesday
448,20.000000000000143
449,-5.629717598413423
2,2, 1, 2, 0, 3, 0.00,60.00,Tuesday
448,20.000000000000037
449,-5.055386862826881
2,2, 1, 2, 0, 4, 0.00,60.00,Tuesday
448,20.0
449,-6.69328274020384
2,2, 1, 2, 0, 5, 0.00,60.00,Tuesday
448,20.000000000000076
449,-5.697009655346126
2,2, 1, 2, 0, 6, 0.00,60.00,Tuesday
448,20.000000000000008
449,-6.184936603986317
2,2, 1, 2, 0, 7, 0.00,60.00,Tuesday
448,20.000000000000129
449,-4.6497110749693209
2,2, 1, 2, 0, 8, 0.00,60.00,Tuesday
448,20.00000000000024
449,-3.434621669477225
2,2, 1, 2, 0, 9, 0.00,60.00,Tuesday
448,20.00000000000012
449,-2.081742879082187
2,2, 1, 2, 0,10, 0.00,60.00,Tuesday
448,19.999999999999927
449,1.795077968731258
2,2, 1, 2, 0,11, 0.00,60.00,Tuesday
448,20.000000000000008
449,5.451824958004509
2,2, 1, 2, 0,12, 0.00,60.00,Tuesday
448,20.000000000000055
449,9.025655625914539
2,2, 1, 2, 0,13, 0.00,60.00,Tuesday
448,20.000000000000008
449,9.788512261604647
2,2, 1, 2, 0,14, 0.00,60.00,Tuesday
448,20.000000000000015
449,9.95087288801177
2,2, 1, 2, 0,15, 0.00,60.00,Tuesday
448,20.00156793027812
449,10.443026968544978
2,2, 1, 2, 0,16, 0.00,60.00,Tuesday
448,20.000004923805958
449,8.396465458248607
2,2, 1, 2, 0,17, 0.00,60.00,Tuesday
448,20.00000004046965
449,7.177711372683436
2,2, 1, 2, 0,18, 0.00,60.00,Tuesday
448,20.00000000053959
449,5.258180711226897
2,2, 1, 2, 0,19, 0.00,60.00,Tuesday
448,20.00000000001245
449,1.4616190670307683
2,2, 1, 2, 0,20, 0.00,60.00,Tuesday
448,20.000000000000339
449,0.19111901622969544
2,2, 1, 2, 0,21, 0.00,60.00,Tuesday
448,20.00000000000001
449,-1.5480944813482798
2,2, 1, 2, 0,22, 0.00,60.00,Tuesday
448,20.00000000000007
449,-1.1345951195695843
2,2, 1, 2, 0,23, 0.00,60.00,Tuesday
448,19.999999999999934
449,-1.582564272848206
2,2, 1, 2, 0,24, 0.00,60.00,Tuesday
448,20.0
449,-0.3291418119851224
2,3, 1, 3, 0, 1, 0.00,60.00,Wednesday
448,20.000000000000033
449,-0.7477500077492015
2,3, 1, 3, 0, 2, 0.00,60.00,Wednesday
448,20.0
449,-0.7022135837683594
2,3, 1, 3, 0, 3, 0.00,60.00,Wednesday
448,19.999999999999944
449,-1.163679092745948
2,3, 1, 3, 0, 4, 0.00,60.00,Wednesday
448,20.000000000000108
449,-1.7441576241104893
2,3, 1, 3, 0, 5, 0.00,60.00,Wednesday
448,20.000000000000008
449,-1.751533947829641
2,3, 1, 3, 0, 6, 0.00,60.00,Wednesday
448,20.00000000000011
449,-1.1625191549229793
2,3, 1, 3, 0, 7, 0.00,60.00,Wednesday
448,20.000000000000033
449,-1.162814497278504
2,3, 1, 3, 0, 8, 0.00,60.00,Wednesday
448,20.000000000000005
449,-0.6639918469562692
2,3, 1, 3, 0, 9, 0.00,60.00,Wednesday
448,20.00000000000001
449,3.067501643219894
2,3, 1, 3, 0,10, 0.00,60.00,Wednesday
448,20.00000000000005
449,5.42874446539596
2,3, 1, 3, 0,11, 0.00,60.00,Wednesday
448,20.00000000000007
449,6.3363015005522149
2,3, 1, 3, 0,12, 0.00,60.00,Wednesday
448,19.999999999999987
449,6.810690478600353
2,3, 1, 3, 0,13, 0.00,60.00,Wednesday
448,20.00000000000002
449,5.787125721222242
2,3, 1, 3, 0,14, 0.00,60.00,Wednesday
448,20.000000000000044
449,4.772396589205539
2,3, 1, 3, 0,15, 0.00,60.00,Wednesday
448,20.0
449,2.6089314725967727
2,3, 1, 3, 0,16, 0.00,60.00,Wednesday
448,20.000000000000047
449,0.042292850672272386
2,3, 1, 3, 0,17, 0.00,60.00,Wednesday
448,20.000000000000147
449,-2.5741017935006429
2,3, 1, 3, 0,18, 0.00,60.00,Wednesday
448,20.000000000000094
449,-5.222687485859242
2,3, 1, 3, 0,19, 0.00,60.00,Wednesday
448,20.000000000000115
449,-5.305899717577595
2,3, 1, 3, 0,20, 0.00,60.00,Wednesday
448,20.00000000000004
449,-6.319542023266866
2,3, 1, 3, 0,21, 0.00,60.00,Wednesday
448,19.999999999999898
449,-8.253354362004416
2,3, 1, 3, 0,22, 0.00,60.00,Wednesday
448,20.00000000000006
449,-9.651420541958533
2,3, 1, 3, 0,23, 0.00,60.00,Wednesday
448,20.000000000000136
449,-11.104125319082538
2,3, 1, 3, 0,24, 0.00,60.00,Wednesday
448,20.000000000000008
449,-12.174626253272838
2,4, 1, 4, 0, 1, 0.00,60.00,Thursday
448,20.0
449,-12.534335889326256
2,4, 1, 4, 0, 2, 0.00,60.00,Thursday
448,19.999999999999859
449,-14.023889605827872
2,4, 1, 4, 0, 3, 0.00,60.00,Thursday
448,20.00000000000028
449,-15.85193365720098
2,4, 1, 4, 0, 4, 0.00,60.00,Thursday
448,20.000000000000055
449,-14.75817758715944
2,4, 1, 4, 0, 5, 0.00,60.00,Thursday
448,20.000000000000165
449,-14.422730098520436
2,4, 1, 4, 0, 6, 0.00,60.00,Thursday
448,20.000000000000179
449,-13.707678554484069
2,4, 1, 4, 0, 7, 0.00,60.00,Thursday
448,19.999999999999735
449,-14.615382310636568
2,4, 1, 4, 0, 8, 0.00,60.00,Thursday
448,19.999999999999955
449,-13.101502082837423
2,4, 1, 4, 0, 9, 0.00,60.00,Thursday
448,19.999999999999969
449,-10.238548909656116
2,4, 1, 4, 0,10, 0.00,60.00,Thursday
448,19.999999999999895
449,-2.141698556382426
2,4, 1, 4, 0,11, 0.00,60.00,Thursday
448,19.999999999999998
449,2.2728990896614418
2,4, 1, 4, 0,12, 0.00,60.00,Thursday
448,20.000000000000044
449,2.863954974049676
2,4, 1, 4, 0,13, 0.00,60.00,Thursday
448,20.00000000000005
449,7.786823815021253
2,4, 1, 4, 0,14, 0.00,60.00,Thursday
448,20.00000000000001
449,9.483083650230905
2,4, 1, 4, 0,15, 0.00,60.00,Thursday
448,20.00000000000005
449,10.965222274638439
2,4, 1, 4, 0,16, 0.00,60.00,Thursday
448,20.000000000000065
449,9.998867446607477
2,4, 1, 4, 0,17, 0.00,60.00,Thursday
448,20.000000000000055
449,8.15377557332693
2,4, 1, 4, 0,18, 0.00,60.00,Thursday
448,20.0
449,7.222810209162842
2,4, 1, 4, 0,19, 0.00,60.00,Thursday
448,20.000000000000044
449,6.122876431331527
2,4, 1, 4, 0,20, 0.00,60.00,Thursday
448,19.999999999999959
449,7.023041813413144
2,4, 1, 4, 0,21, 0.00,60.00,Thursday
448,20.000000000000026
449,6.049354956655608
2,4, 1, 4, 0,22, 0.00,60.00,Thursday
448,20.00000000000011
449,5.515096475069769
2,4, 1, 4, 0,23, 0.00,60.00,Thursday
448,20.000000000000044
449,4.918709723901629
2,4, 1, 4, 0,24, 0.00,60.00,Thursday
448,19.999999999999969
449,9.779968436370295
2,5, 1, 5, 0, 1, 0.00,60.00,Friday
448,19.999999999999955
449,5.159526517900551
2,5, 1, 5, 0, 2, 0.00,60.00,Friday
448,20.00000000000001
449,10.314550961024697
2,5, 1, 5, 0, 3, 0.00,60.00,Friday
448,20.000000000000058
449,10.915150239463497
2,5, 1, 5, 0, 4, 0.00,60.00,Friday
448,20.000000000000033
449,9.328825440879186
2,5, 1, 5, 0, 5, 0.00,60.00,Friday
448,20.0
449,9.26211405692604
2,5, 1, 5, 0, 6, 0.00,60.00,Friday
448,20.00000000000001
449,9.272849856765366
2,5, 1, 5, 0, 7, 0.00,60.00,Friday
448,19.999999999999955
449,5.127765827600125
2,5, 1, 5, 0, 8, 0.00,60.00,Friday
448,19.99999999999996
449,9.116411793272983
2,5, 1, 5, 0, 9, 0.00,60.00,Friday
448,19.999999999999994
449,8.874805825493948
2,5, 1, 5, 0,10, 0.00,60.00,Friday
448,20.066819446680456
449,12.670858491704708
2,5, 1, 5, 0,11, 0.00,60.00,Friday
448,20.0333225649441
449,12.902355697759463
2,5, 1, 5, 0,12, 0.00,60.00,Friday
448,20.493209134971026
449,15.146120279590292
2,5, 1, 5, 0,13, 0.00,60.00,Friday
448,20.775557224472967
449,14.855282655282525
2,5, 1, 5, 0,14, 0.00,60.00,Friday
448,20.933608094919497
449,13.692360111851265
2,5, 1, 5, 0,15, 0.00,60.00,Friday
448,20.988108347887047
449,11.259761429384206
2,5, 1, 5, 0,16, 0.00,60.00,Friday
448,20.997653787055744
449,9.577227087131988
2,5, 1, 5, 0,17, 0.00,60.00,Friday
448,20.760112108863735
449,6.545685065267323
2,5, 1, 5, 0,18, 0.00,60.00,Friday
448,20.56473896145966
449,5.971950584631328
2,5, 1, 5, 0,19, 0.00,60.00,Friday
448,20.37089078911821
449,4.092452664593062
2,5, 1, 5, 0,20, 0.00,60.00,Friday
448,20.158486156172299
449,3.3773104403215519
2,5, 1, 5, 0,21, 0.00,60.00,Friday
448,20.001112224488815
449,1.7901612728724779
2,5, 1, 5, 0,22, 0.00,60.00,Friday
448,20.000018026605827
449,0.21639847664442689
2,5, 1, 5, 0,23, 0.00,60.00,Friday
448,20.000000421318803
449,0.5565473297672738
2,5, 1, 5, 0,24, 0.00,60.00,Friday
448,20.000000013773599
449,-0.03622000696755355
2,6, 1, 6, 0, 1, 0.00,60.00,Saturday
448,20.0000000004904
449,-0.05374331901975172
2,6, 1, 6, 0, 2, 0.00,60.00,Saturday
448,20.00000000001791
449,0.9778209724921223
2,6, 1, 6, 0, 3, 0.00,60.00,Saturday
448,20.000000000000708
449,0.5343608595962995
2,6, 1, 6, 0, 4, 0.00,60.00,Saturday
448,20.00000000000014
449,-0.03300449939734423
2,6, 1, 6, 0, 5, 0.00,60.00,Saturday
448,20.000000000000015
449,-0.6652433688942647
2,6, 1, 6, 0, 6, 0.00,60.00,Saturday
448,19.999999999999955
449,-0.16057797373029956
2,6, 1, 6, 0, 7, 0.00,60.00,Saturday
448,20.000000000000008
449,-0.678721592346697
2,6, 1, 6, 0, 8, 0.00,60.00,Saturday
448,20.00000000000019
449,-0.6653193993076758
2,6, 1, 6, 0, 9, 0.00,60.00,Saturday
448,20.000000000000008
449,-0.5980267461554201
2,6, 1, 6, 0,10, 0.00,60.00,Saturday
448,20.000000000000005
449,0.11039775267772832
2,6, 1, 6, 0,11, 0.00,60.00,Saturday
448,20.00000000000002
449,0.9023535168750526
2,6, 1, 6, 0,12, 0.00,60.00,Saturday
448,20.000000000000037
449,1.6921615776766253
2,6, 1, 6, 0,13, 0.00,60.00,Saturday
448,20.00000000000006
449,1.9823766718454455
2,6, 1, 6, 0,14, 0.00,60.00,Saturday
448,20.00000000000006
449,1.4371436288522164
2,6, 1, 6, 0,15, 0.00,60.00,Saturday
448,20.000000000000015
449,1.8961746889882989
2,6, 1, 6, 0,16, 0.00,60.00,Saturday
448,20.0
449,0.827563909309207
2,6, 1, 6, 0,17, 0.00,60.00,Saturday
448,20.000000000000005
449,-0.44439690942747797
2,6, 1, 6, 0,18, 0.00,60.00,Saturday
448,20.000000000000015
449,-1.5464269747498698
2,6, 1, 6, 0,19, 0.00,60.00,Saturday
448,20.00000000000008
449,-3.14249945469645
2,6, 1, 6, 0,20, 0.00,60.00,Saturday
448,20.0
449,-4.314383754482887
2,6, 1, 6, 0,21, 0.00,60.00,Saturday
448,20.000000000000058
449,-5.7743894128752208
2,6, 1, 6, 0,22, 0.00,60.00,Saturday
448,19.999999999999859
449,-7.582882446673927
2,6, 1, 6, 0,23, 0.00,60.00,Saturday
448,19.999999999999898
449,-7.697722166621511
2,6, 1, 6, 0,24, 0.00,60.00,Saturday
448,20.00000000000012
449,-8.778346858310452
2,7, 1, 7, 0, 1, 0.00,60.00,Sunday
448,19.9999999999999
449,-8.864595548584865
2,7, 1, 7, 0, 2, 0.00,60.00,Sunday
448,20.000000000000254
449,-8.322699376330509
2,7, 1, 7, 0, 3, 0.00,60.00,Sunday
448,20.000000000000186
449,-10.468324447292174
2,7, 1, 7, 0, 4, 0.00,60.00,Sunday
448,19.999999999999717
449,-11.839954862077489
2,7, 1, 7, 0, 5, 0.00,60.00,Sunday
448,19.999999999999845
449,-12.065377104248514
2,7, 1, 7, 0, 6, 0.00,60.00,Sunday
448,19.999999999999987
449,-12.742991110895842
2,7, 1, 7, 0, 7, 0.00,60.00,Sunday
448,19.99999999999987
449,-12.78251145017907
2,7, 1, 7, 0, 8, 0.00,60.00,Sunday
448,20.000000000000015
449,-3.534020379064337
2,7, 1, 7, 0, 9, 0.00,60.00,Sunday
448,20.000000000000168
449,-1.1334614669883026
2,7, 1, 7, 0,10, 0.00,60.00,Sunday
448,19.999999999999849
449,0.2390846942307498
2,7, 1, 7, 0,11, 0.00,60.00,Sunday
448,19.999999999999937
449,2.1835467821638789
2,7, 1, 7, 0,12, 0.00,60.00,Sunday
448,19.999999999999994
449,4.589468148400871
2,7, 1, 7, 0,13, 0.00,60.00,Sunday
448,20.00000000000002
449,5.432754876634683
2,7, 1, 7, 0,14, 0.00,60.00,Sunday
448,20.0
449,5.040758858387345
2,7, 1, 7, 0,15, 0.00,60.00,Sunday
448,20.00000000000007
449,5.013142149047665
2,7, 1, 7, 0,16, 0.00,60.00,Sunday
448,20.00000000000006
449,4.471952172320856
2,7, 1, 7, 0,17, 0.00,60.00,Sunday
448,20.00000000000002
449,4.956743510275641
2,7, 1, 7, 0,18, 0.00,60.00,Sunday
448,20.00000000000003
449,5.530037762279681
2,7, 1, 7, 0,19, 0.00,60.00,Sunday
448,20.00000000000005
449,4.947688181189394
2,7, 1, 7, 0,20, 0.00,60.00,Sunday
448,20.000000000000069
449,4.365255513880791
2,7, 1, 7, 0,21, 0.00,60.00,Sunday
448,20.00000000000007
449,2.2392826982209015
2,7, 1, 7, 0,22, 0.00,60.00,Sunday
448,20.00000000000009
449,-0.4257123740878872
2,7, 1, 7, 0,23, 0.00,60.00,Sunday
448,20.000000000000079
449,-0.013555493139327399
2,7, 1, 7, 0,24, 0.00,60.00,Sunday
448,19.999999999999998
449,1.5610665980396937
2,8, 1, 8, 0, 1, 0.00,60.00,Monday
448,19.99999999999996
449,1.6168589159522898
2,8, 1, 8, 0, 2, 0.00,60.00,Monday
448,19.999999999999998
449,1.0652839245758828
2,8, 1, 8, 0, 3, 0.00,60.00,Monday
448,19.999999999999895
449,-0.5632739283666629
2,8, 1, 8, 0, 4, 0.00,60.00,Monday
448,20.000000000000119
449,-1.6790517898606828
2,8, 1, 8, 0, 5, 0.00,60.00,Monday
448,20.000000000000015
449,-3.2474564975731909
2,8, 1, 8, 0, 6, 0.00,60.00,Monday
448,20.000000000000005
449,-3.2810306246655758
2,8, 1, 8, 0, 7, 0.00,60.00,Monday
448,20.00000000000024
449,-4.363068290986769
2,8, 1, 8, 0, 8, 0.00,60.00,Monday
448,19.99999999999997
449,-2.9083115917857378
2,8, 1, 8, 0, 9, 0.00,60.00,Monday
448,20.000000000000143
449,2.0189226479134927
2,8, 1, 8, 0,10, 0.00,60.00,Monday
448,20.000000000000069
449,4.86053051619801
2,8, 1, 8, 0,11, 0.00,60.00,Monday
448,20.0
449,7.159564712798146
2,8, 1, 8, 0,12, 0.00,60.00,Monday
448,20.00000000000002
449,7.877113435828364
2,8, 1, 8, 0,13, 0.00,60.00,Monday
448,20.0
449,10.66289056337933
2,8, 1, 8, 0,14, 0.00,60.00,Monday
448,20.219185066521715
449,10.855294032816543
2,8, 1, 8, 0,15, 0.00,60.00,Monday
448,20.360584665054114
449,8.293753249222645
2,8, 1, 8, 0,16, 0.00,60.00,Monday
448,20.50669828291549
449,7.565042175507672
2,8, 1, 8, 0,17, 0.00,60.00,Monday
448,20.257837538463574
449,5.015327623635946
2,8, 1, 8, 0,18, 0.00,60.00,Monday
448,20.001941567540439
449,1.2110398115175008
2,8, 1, 8, 0,19, 0.00,60.00,Monday
448,20.000037539328
449,-0.36557581200685065
2,8, 1, 8, 0,20, 0.00,60.00,Monday
448,20.000000966404376
449,-1.577576909121035
2,8, 1, 8, 0,21, 0.00,60.00,Monday
448,20.00000002634181
449,-1.0888140485097922
2,8, 1, 8, 0,22, 0.00,60.00,Monday
448,20.000000000987954
449,-2.155993337749584
2,8, 1, 8, 0,23, 0.00,60.00,Monday
448,20.00000000003516
449,-1.7203802937521835
2,8, 1, 8, 0,24, 0.00,60.00,Monday
448,20.000000000001465
449,-2.779603191591399
2,9, 1, 9, 0, 1, 0.00,60.00,Tuesday
448,20.000000000000076
449,-3.2923954102364436
2,9, 1, 9, 0, 2, 0.00,60.00,Tuesday
448,20.000000000000115
449,-3.317942831111525
2,9, 1, 9, 0, 3, 0.00,60.00,Tuesday
448,20.00000000000012
449,-3.333979428056194
2,9, 1, 9, 0, 4, 0.00,60.00,Tuesday
448,19.99999999999989
449,-3.3425833297613405
2,9, 1, 9, 0, 5, 0.00,60.00,Tuesday
448,19.99999999999997
449,-3.9295579599157457
2,9, 1, 9, 0, 6, 0.00,60.00,Tuesday
448,20.000000000000115
449,-3.3779294168973399
2,9, 1, 9, 0, 7, 0.00,60.00,Tuesday
448,20.00000000000006
449,-5.147484844907273
2,9, 1, 9, 0, 8, 0.00,60.00,Tuesday
448,20.0000000000001
449,-1.6215875971950105
2,9, 1, 9, 0, 9, 0.00,60.00,Tuesday
448,20.000000000000037
449,0.2674650801079392
2,9, 1, 9, 0,10, 0.00,60.00,Tuesday
448,20.000000000000026
449,2.695680797124219
2,9, 1, 9, 0,11, 0.00,60.00,Tuesday
448,19.999999999999998
449,3.957178432665703
2,9, 1, 9, 0,12, 0.00,60.00,Tuesday
448,20.000000000000033
449,3.5776738005731958
2,9, 1, 9, 0,13, 0.00,60.00,Tuesday
448,20.00000000000001
449,3.6193230809948715
2,9, 1, 9, 0,14, 0.00,60.00,Tuesday
448,20.000000000000005
449,4.196063772962957
2,9, 1, 9, 0,15, 0.00,60.00,Tuesday
448,20.0
449,4.677474029007843
2,9, 1, 9, 0,16, 0.00,60.00,Tuesday
448,20.017009365524797
449,4.236596997661789
2,9, 1, 9, 0,17, 0.00,60.00,Tuesday
448,20.00013829095471
449,3.11249635086315
2,9, 1, 9, 0,18, 0.00,60.00,Tuesday
448,20.00000244264981
449,1.3375111663450983
2,9, 1, 9, 0,19, 0.00,60.00,Tuesday
448,20.000000054336934
449,0.11863531128285804
2,9, 1, 9, 0,20, 0.00,60.00,Tuesday
448,20.000000001386267
449,0.5824068620280439
2,9, 1, 9, 0,21, 0.00,60.00,Tuesday
448,20.000000000048126
449,-1.6290894503994427
2,9, 1, 9, 0,22, 0.00,60.00,Tuesday
448,20.000000000001849
449,-1.702464378457216
2,9, 1, 9, 0,23, 0.00,60.00,Tuesday
448,20.000000000000143
449,-2.770708104757178
2,9, 1, 9, 0,24, 0.00,60.00,Tuesday
448,20.000000000000115
449,-4.344293695659888
2,10, 1,10, 0, 1, 0.00,60.00,Wednesday
448,19.999999999999948
449,-4.3975897583997
2,10, 1,10, 0, 2, 0.00,60.00,Wednesday
448,20.000000000000005
449,-4.995246085040498
2,10, 1,10, 0, 3, 0.00,60.00,Wednesday
448,20.00000000000003
449,-5.037138745393352
2,10, 1,10, 0, 4, 0.00,60.00,Wednesday
448,20.000000000000136
449,-5.616915955190111
2,10, 1,10, 0, 5, 0.00,60.00,Wednesday
448,20.00000000000001
449,-6.112376713839596
2,10, 1,10, 0, 6, 0.00,60.00,Wednesday
448,20.000000000000175
449,-6.705373484244934
2,10, 1,10, 0, 7, 0.00,60.00,Wednesday
448,20.000000000000087
449,-5.729065240584088
2,10, 1,10, 0, 8, 0.00,60.00,Wednesday
448,20.0
449,-5.085921013048237
2,10, 1,10, 0, 9, 0.00,60.00,Wednesday
448,19.999999999999934
449,-1.8318398728588015
2,10, 1,10, 0,10, 0.00,60.00,Wednesday
448,20.000000000000079
449,1.5862753471092868
2,10, 1,10, 0,11, 0.00,60.00,Wednesday
448,20.000000000000047
449,4.373937720673827
2,10, 1,10, 0,12, 0.00,60.00,Wednesday
448,20.00000000000002
449,6.248135945349726
2,10, 1,10, 0,13, 0.00,60.00,Wednesday
448,20.0
449,8.236888203974019
2,10, 1,10, 0,14, 0.00,60.00,Wednesday
448,20.076580735134664
449,8.38539380206295
2,10, 1,10, 0,15, 0.00,60.00,Wednesday
448,20.29550332680652
449,12.802469057512904
2,10, 1,10, 0,16, 0.00,60.00,Wednesday
448,20.414903231052688
449,7.079309764095148
2,10, 1,10, 0,17, 0.00,60.00,Wednesday
448,20.195090993912264
449,4.581401489188887
2,10, 1,10, 0,18, 0.00,60.00,Wednesday
448,20.001540926491086
449,1.427940866895449
2,10, 1,10, 0,19, 0.00,60.00,Wednesday
448,20.00002661323976
449,-0.7326681757252114
2,10, 1,10, 0,20, 0.00,60.00,Wednesday
448,20.000000544949047
449,-2.0003997269732927
2,10, 1,10, 0,21, 0.00,60.00,Wednesday
448,20.0000000143513
449,-1.137208279823221
2,10, 1,10, 0,22, 0.00,60.00,Wednesday
448,20.0000000005682
449,-3.2411413081825084
2,10, 1,10, 0,23, 0.00,60.00,Wednesday
448,20.000000000023844
449,-4.32543045639841
2,10, 1,10, 0,24, 0.00,60.00,Wednesday
448,20.000000000001326
449,-4.983598251363291
2,11, 1,11, 0, 1, 0.00,60.00,Thursday
448,20.00000000000019
449,-5.582234480148103
2,11, 1,11, 0, 2, 0.00,60.00,Thursday
448,19.999999999999905
449,-6.09265545631144
2,11, 1,11, 0, 3, 0.00,60.00,Thursday
448,19.999999999999909
449,-6.134863137713402
2,11, 1,11, 0, 4, 0.00,60.00,Thursday
448,20.000000000000008
449,-5.66609550241081
2,11, 1,11, 0, 5, 0.00,60.00,Thursday
448,20.00000000000001
449,-5.072111053852433
2,11, 1,11, 0, 6, 0.00,60.00,Thursday
448,19.999999999999877
449,-4.009318009442665
2,11, 1,11, 0, 7, 0.00,60.00,Thursday
448,20.000000000000115
449,-3.98700441208422
2,11, 1,11, 0, 8, 0.00,60.00,Thursday
448,20.000000000000079
449,-3.3854787214423158
2,11, 1,11, 0, 9, 0.00,60.00,Thursday
448,19.999999999999976
449,-1.7746801970636999
2,11, 1,11, 0,10, 0.00,60.00,Thursday
448,19.99999999999997
449,1.0212395378537618
2,11, 1,11, 0,11, 0.00,60.00,Thursday
448,19.99999999999996
449,6.942691495807368
2,11, 1,11, 0,12, 0.00,60.00,Thursday
448,19.99999999999999
449,8.162525129206657
2,11, 1,11, 0,13, 0.00,60.00,Thursday
448,19.999999999999998
449,10.72075761471597
2,11, 1,11, 0,14, 0.00,60.00,Thursday
448,20.070629362166863
449,11.827677830527766
2,11, 1,11, 0,15, 0.00,60.00,Thursday
448,20.04346366248451
449,12.301964306864729
2,11, 1,11, 0,16, 0.00,60.00,Thursday
448,20.00015071070627
449,10.240457551499688
2,11, 1,11, 0,17, 0.00,60.00,Thursday
448,20.000001174690003
449,8.53465791676748
2,11, 1,11, 0,18, 0.00,60.00,Thursday
448,20.00000000987343
449,7.910828049011502
2,11, 1,11, 0,19, 0.00,60.00,Thursday
448,20.000000000081035
449,7.245904972865266
2,11, 1,11, 0,20, 0.00,60.00,Thursday
448,20.000000000001195
449,5.65150271367373
2,11, 1,11, 0,21, 0.00,60.00,Thursday
448,20.000000000000065
449,4.443108389458623
2,11, 1,11, 0,22, 0.00,60.00,Thursday
448,20.000000000000037
449,6.001567956682084
2,11, 1,11, 0,23, 0.00,60.00,Thursday
448,20.00000000000005
449,4.427312515969732
2,11, 1,11, 0,24, 0.00,60.00,Thursday
448,20.0
449,3.8981228102598348
2,12, 1,12, 0, 1, 0.00,60.00,Friday
448,20.000000000000065
449,2.837969346921463
2,12, 1,12, 0, 2, 0.00,60.00,Friday
448,20.00000000000008
449,0.1650532526987131
2,12, 1,12, 0, 3, 0.00,60.00,Friday
448,19.999999999999966
449,-0.9375689397676282
2,12, 1,12, 0, 4, 0.00,60.00,Friday
448,19.999999999999898
449,-3.1342720958350989
2,12, 1,12, 0, 5, 0.00,60.00,Friday
448,20.000000000000076
449,-4.7867309779432889
2,12, 1,12, 0, 6, 0.00,60.00,Friday
448,20.000000000000143
449,-5.481354160685369
2,12, 1,12, 0, 7, 0.00,60.00,Friday
448,20.000000000000044
449,-6.01865115679841
2,12, 1,12, 0, 8, 0.00,60.00,Friday
448,20.0
449,-4.465898978321622
2,12, 1,12, 0, 9, 0.00,60.00,Friday
448,20.000000000000005
449,-0.8216318604806379
2,12, 1,12, 0,10, 0.00,60.00,Friday
448,20.000000000000055
449,1.9075538596777213
2,12, 1,12, 0,11, 0.00,60.00,Friday
448,20.000000000000087
449,5.6184599546137419
2,12, 1,12, 0,12, 0.00,60.00,Friday
448,19.99999999999998
449,7.245268036384789
2,12, 1,12, 0,13, 0.00,60.00,Friday
448,20.00000000000003
449,7.73374241231427
2,12, 1,12, 0,14, 0.00,60.00,Friday
448,19.999999999999994
449,8.849323098351958
2,12, 1,12, 0,15, 0.00,60.00,Friday
448,19.99999999999995
449,8.30961830051477
2,12, 1,12, 0,16, 0.00,60.00,Friday
448,20.00000000000004
449,8.289875760649048
2,12, 1,12, 0,17, 0.00,60.00,Friday
448,19.999999999999966
449,4.503958035631409
2,12, 1,12, 0,18, 0.00,60.00,Friday
448,19.999999999999948
449,2.3787006865241868
2,12, 1,12, 0,19, 0.00,60.00,Friday
448,20.00000000000006
449,2.249094417296718
2,12, 1,12, 0,20, 0.00,60.00,Friday
448,20.000000000000005
449,2.2070329202962104
2,12, 1,12, 0,21, 0.00,60.00,Friday
448,19.999999999999909
449,-0.862449796538375
2,12, 1,12, 0,22, 0.00,60.00,Friday
448,19.999999999999998
449,-2.0702329269704768
2,12, 1,12, 0,23, 0.00,60.00,Friday
448,20.000000000000065
449,-1.7096407646426478
2,12, 1,12, 0,24, 0.00,60.00,Friday
448,20.000000000000008
449,-1.7389531919531532
2,13, 1,13, 0, 1, 0.00,60.00,Saturday
448,19.999999999999984
449,0.42072840372239508
2,13, 1,13, 0, 2, 0.00,60.00,Saturday
448,20.0
449,2.9740729679023438
2,13, 1,13, 0, 3, 0.00,60.00,Saturday
448,20.000000000000104
449,2.6648877729754778
2,13, 1,13, 0, 4, 0.00,60.00,Saturday
448,20.000000000000037
449,2.6088728799570037
2,13, 1,13, 0, 5, 0.00,60.00,Saturday
448,20.0
449,3.0263494942979705
2,13, 1,13, 0, 6, 0.00,60.00,Saturday
448,20.00000000000013
449,2.643336610369322
2,13, 1,13, 0, 7, 0.00,60.00,Saturday
448,20.000000000000115
449,2.10870476315671
2,13, 1,13, 0, 8, 0.00,60.00,Saturday
448,20.00000000000004
449,3.1931746635373896
2,13, 1,13, 0, 9, 0.00,60.00,Saturday
448,20.000000000000008
449,5.446905347279846
2,13, 1,13, 0,10, 0.00,60.00,Saturday