Program Version,EnergyPlus, Version 9.2.0-921312fa1d, YMD=2019.12.03 16:44
1,5,Environment Title[],Latitude[deg],Longitude[deg],Time Zone[],Elevation[m]
2,8,Day of Simulation[],Month[],Day of Month[],DST Indicator[1=yes 0=no],Hour[],StartMinute[],EndMinute[],DayType
3,5,Cumulative Day of Simulation[],Month[],Day of Month[],DST Indicator[1=yes 0=no],DayType  ! When Daily Meters Requested
4,2,Cumulative Days of Simulation[],Month[]  ! When Monthly Meters Requested
5,1,Cumulative Days of Simulation[] ! When Run Period Meters Requested
6,1,Calendar Year of Simulation[] ! When Annual Meters Requested
174,11,cooking range:InteriorEquipment:Electricity [J] !RunPeriod [Value,Min,Month,Day,Hour,Minute,Max,Month,Day,Hour,Minute]
144,11,clothes dryer:InteriorEquipment:Electricity [J] !RunPeriod [Value,Min,Month,Day,Hour,Minute,Max,Month,Day,Hour,Minute]
745,1,Gas:Facility [J] !Hourly
234,11,mech vent house fan:InteriorEquipment:Electricity [J] !RunPeriod [Value,Min,Month,Day,Hour,Minute,Max,Month,Day,Hour,Minute]
107,11,interior lighting:InteriorLights:Electricity [J] !RunPeriod [Value,Min,Month,Day,Hour,Minute,Max,Month,Day,Hour,Minute]
12,1,Electricity:Facility [J] !Hourly
264,11,misc plug loads:InteriorEquipment:Electricity [J] !RunPeriod [Value,Min,Month,Day,Hour,Minute,Max,Month,Day,Hour,Minute]
645,11,Cooling:DistrictCooling [J] !RunPeriod [Value,Min,Month,Day,Hour,Minute,Max,Month,Day,Hour,Minute]
28,11,ExteriorLights:Electricity [J] !RunPeriod [Value,Min,Month,Day,Hour,Minute,Max,Month,Day,Hour,Minute]
189,11,dishwasher:InteriorEquipment:Electricity [J] !RunPeriod [Value,Min,Month,Day,Hour,Minute,Max,Month,Day,Hour,Minute]
159,11,clothes washer:InteriorEquipment:Electricity [J] !RunPeriod [Value,Min,Month,Day,Hour,Minute,Max,Month,Day,Hour,Minute]
204,11,fridge:InteriorEquipment:Electricity [J] !RunPeriod [Value,Min,Month,Day,Hour,Minute,Max,Month,Day,Hour,Minute]
749,11,Gas:Facility [J] !RunPeriod [Value,Min,Month,Day,Hour,Minute,Max,Month,Day,Hour,Minute]
531,11,Cooling:EnergyTransfer:Zone:LIVING [J] !RunPeriod [Value,Min,Month,Day,Hour,Minute,Max,Month,Day,Hour,Minute]
608,11,Heating:DistrictHeating [J] !RunPeriod [Value,Min,Month,Day,Hour,Minute,Max,Month,Day,Hour,Minute]
120,11,InteriorEquipment:Electricity [J] !RunPeriod [Value,Min,Month,Day,Hour,Minute,Max,Month,Day,Hour,Minute]
506,11,Heating:EnergyTransfer:Zone:LIVING [J] !RunPeriod [Value,Min,Month,Day,Hour,Minute,Max,Month,Day,Hour,Minute]
16,11,Electricity:Facility [J] !RunPeriod [Value,Min,Month,Day,Hour,Minute,Max,Month,Day,Hour,Minute]
279,11,misc tv:InteriorEquipment:Electricity [J] !RunPeriod [Value,Min,Month,Day,Hour,Minute,Max,Month,Day,Hour,Minute]
End of Data Dictionary
1,RUN PERIOD 1,  39.83,-104.65,  -7.00,1650.00
2,1, 1, 1, 0, 1, 0.00,60.00,Monday
12,2732926.901504099
745,11058277.256769918
2,1, 1, 1, 0, 2, 0.00,60.00,Monday
12,2491691.2605515059
745,13628218.418697665
2,1, 1, 1, 0, 3, 0.00,60.00,Monday
12,2414107.527021299
745,15047370.245510059
2,1, 1, 1, 0, 4, 0.00,60.00,Monday
12,2380799.2380656965
745,16139552.11426034
2,1, 1, 1, 0, 5, 0.00,60.00,Monday
12,2326134.4871721176
745,16644026.856152615
2,1, 1, 1, 0, 6, 0.00,60.00,Monday
12,2764008.699407508
745,16247424.60161082
2,1, 1, 1, 0, 7, 0.00,60.00,Monday
12,3817651.0961608958
745,15676481.081525632
2,1, 1, 1, 0, 8, 0.00,60.00,Monday
12,5643017.272729804
745,14757022.664404732
2,1, 1, 1, 0, 9, 0.00,60.00,Monday
12,10615408.535045004
745,13099287.141686632
2,1, 1, 1, 0,10, 0.00,60.00,Monday
12,3919087.6333436716
745,8616591.700222826
2,1, 1, 1, 0,11, 0.00,60.00,Monday
12,3897158.108860578
745,5641273.986604911
2,1, 1, 1, 0,12, 0.00,60.00,Monday
12,5050609.248042275
745,4014707.244771683
2,1, 1, 1, 0,13, 0.00,60.00,Monday
12,5024161.103862515
745,3770433.7319748478
2,1, 1, 1, 0,14, 0.00,60.00,Monday
12,3811875.9128322217
745,3760766.144076255
2,1, 1, 1, 0,15, 0.00,60.00,Monday
12,5070908.959534288
745,2952772.528233055
2,1, 1, 1, 0,16, 0.00,60.00,Monday
12,5530994.0109702399
745,2890704.7457052899
2,1, 1, 1, 0,17, 0.00,60.00,Monday
12,4863060.202327166
745,4548695.187166308
2,1, 1, 1, 0,18, 0.00,60.00,Monday
12,7606002.658358072
745,6417159.79949026
2,1, 1, 1, 0,19, 0.00,60.00,Monday
12,16785924.919341197
745,8335296.749428058
2,1, 1, 1, 0,20, 0.00,60.00,Monday
12,7068813.388728221
745,8784479.321782878
2,1, 1, 1, 0,21, 0.00,60.00,Monday
12,6593189.854555637
745,9137365.074607628
2,1, 1, 1, 0,22, 0.00,60.00,Monday
12,7074575.344973201
745,10187671.61139543
2,1, 1, 1, 0,23, 0.00,60.00,Monday
12,5134542.977676363
745,11556597.07337317
2,1, 1, 1, 0,24, 0.00,60.00,Monday
12,3742608.1297442147
745,14148876.553019235
2,2, 1, 2, 0, 1, 0.00,60.00,Tuesday
12,2846456.8765583785
745,15257025.001688689
2,2, 1, 2, 0, 2, 0.00,60.00,Tuesday
12,2543299.065428838
745,15536861.085493863
2,2, 1, 2, 0, 3, 0.00,60.00,Tuesday
12,2433643.252047632
745,15769871.781870395
2,2, 1, 2, 0, 4, 0.00,60.00,Tuesday
12,3536031.970998126
745,16895195.80375422
2,2, 1, 2, 0, 5, 0.00,60.00,Tuesday
12,2302465.5009021714
745,15768662.418893325
2,2, 1, 2, 0, 6, 0.00,60.00,Tuesday
12,2754705.912969145
745,15903374.023242759
2,2, 1, 2, 0, 7, 0.00,60.00,Tuesday
12,3793170.524132258
745,14771101.277201519
2,2, 1, 2, 0, 8, 0.00,60.00,Tuesday
12,5633547.351425243
745,13052860.01941172
2,2, 1, 2, 0, 9, 0.00,60.00,Tuesday
12,4178710.119401828
745,11846137.221167874
2,2, 1, 2, 0,10, 0.00,60.00,Tuesday
12,5180575.627255082
745,7863862.1876769349
2,2, 1, 2, 0,11, 0.00,60.00,Tuesday
12,5649848.071886266
745,4275794.49921346
2,2, 1, 2, 0,12, 0.00,60.00,Tuesday
12,4475137.892962273
745,2414722.2840622488
2,2, 1, 2, 0,13, 0.00,60.00,Tuesday
12,3731887.195212291
745,1486518.3267353613
2,2, 1, 2, 0,14, 0.00,60.00,Tuesday
12,3744282.0924195388
745,1260902.9943441635
2,2, 1, 2, 0,15, 0.00,60.00,Tuesday
12,3621532.992798267
745,0.0
2,2, 1, 2, 0,16, 0.00,60.00,Tuesday
12,5144927.144113266
745,571027.8534731531
2,2, 1, 2, 0,17, 0.00,60.00,Tuesday
12,4780100.217598878
745,1480535.8871236912
2,2, 1, 2, 0,18, 0.00,60.00,Tuesday
12,7408883.634938141
745,2404143.54696818
2,2, 1, 2, 0,19, 0.00,60.00,Tuesday
12,7028540.231365849
745,3673545.815097395
2,2, 1, 2, 0,20, 0.00,60.00,Tuesday
12,6956668.193112877
745,4636945.712546427
2,2, 1, 2, 0,21, 0.00,60.00,Tuesday
12,6513385.322187736
745,6185905.778031399
2,2, 1, 2, 0,22, 0.00,60.00,Tuesday
12,5787072.940045572
745,6478884.320113242
2,2, 1, 2, 0,23, 0.00,60.00,Tuesday
12,5000700.454047689
745,6606618.056893619
2,2, 1, 2, 0,24, 0.00,60.00,Tuesday
12,9343991.031509866
745,8510699.658039185
2,3, 1, 3, 0, 1, 0.00,60.00,Wednesday
12,3319578.330785796
745,9798882.321271692
2,3, 1, 3, 0, 2, 0.00,60.00,Wednesday
12,2419337.7512120727
745,10952324.814117376
2,3, 1, 3, 0, 3, 0.00,60.00,Wednesday
12,2326424.8402881028
745,11804548.400324163
2,3, 1, 3, 0, 4, 0.00,60.00,Wednesday
12,2290278.7654820436
745,12791778.718310247
2,3, 1, 3, 0, 5, 0.00,60.00,Wednesday
12,2239843.0303059348
745,13452657.706732683
2,3, 1, 3, 0, 6, 0.00,60.00,Wednesday
12,3828199.684577189
745,13636572.772927477
2,3, 1, 3, 0, 7, 0.00,60.00,Wednesday
12,3739646.9553825047
745,12791606.75621193
2,3, 1, 3, 0, 8, 0.00,60.00,Wednesday
12,4421771.889595154
745,12498039.528780623
2,3, 1, 3, 0, 9, 0.00,60.00,Wednesday
12,4111018.6947175378
745,9342664.313615347
2,3, 1, 3, 0,10, 0.00,60.00,Wednesday
12,16578148.079694968
745,7832813.802624594
2,3, 1, 3, 0,11, 0.00,60.00,Wednesday
12,14319389.365994905
745,5007690.30426515
2,3, 1, 3, 0,12, 0.00,60.00,Wednesday
12,4211490.217614759
745,3318558.818316424
2,3, 1, 3, 0,13, 0.00,60.00,Wednesday
12,3780266.3349679375
745,3275753.318225575
2,3, 1, 3, 0,14, 0.00,60.00,Wednesday
12,3819393.989921344
745,4038811.7369603069
2,3, 1, 3, 0,15, 0.00,60.00,Wednesday
12,5021811.324437182
745,3115521.354141813
2,3, 1, 3, 0,16, 0.00,60.00,Wednesday
12,4073890.305946417
745,4988729.323987542
2,3, 1, 3, 0,17, 0.00,60.00,Wednesday
12,4924567.8578458
745,6823470.018928865
2,3, 1, 3, 0,18, 0.00,60.00,Wednesday
12,6385028.27336759
745,7979406.532364669
2,3, 1, 3, 0,19, 0.00,60.00,Wednesday
12,8368647.310502764
745,8063807.042379718
2,3, 1, 3, 0,20, 0.00,60.00,Wednesday
12,17471362.49737064
745,8717423.146555972
2,3, 1, 3, 0,21, 0.00,60.00,Wednesday
12,7026875.248626362
745,11066353.31626567
2,3, 1, 3, 0,22, 0.00,60.00,Wednesday
12,5960223.381643947
745,12882611.845335322
2,3, 1, 3, 0,23, 0.00,60.00,Wednesday
12,5227916.771812011
745,15009896.586335408
2,3, 1, 3, 0,24, 0.00,60.00,Wednesday
12,4995604.336897027
745,16996220.86811058
2,4, 1, 4, 0, 1, 0.00,60.00,Thursday
12,2937034.594372314
745,18606915.532619586
2,4, 1, 4, 0, 2, 0.00,60.00,Thursday
12,3804071.2481166899
745,18606915.532619586
2,4, 1, 4, 0, 3, 0.00,60.00,Thursday
12,2510354.101524179
745,18606915.532619586
2,4, 1, 4, 0, 4, 0.00,60.00,Thursday
12,2447514.297972584
745,18606915.532619586
2,4, 1, 4, 0, 5, 0.00,60.00,Thursday
12,2379209.0503542728
745,18606915.532619586
2,4, 1, 4, 0, 6, 0.00,60.00,Thursday
12,3962620.284297604
745,18606915.532619586
2,4, 1, 4, 0, 7, 0.00,60.00,Thursday
12,3896887.1375576464
745,18606915.532619586
2,4, 1, 4, 0, 8, 0.00,60.00,Thursday
12,5510232.697921335
745,18537205.2541187
2,4, 1, 4, 0, 9, 0.00,60.00,Thursday
12,15697818.415454125
745,16868162.744231907
2,4, 1, 4, 0,10, 0.00,60.00,Thursday
12,5641524.328171878
745,13312875.363523074
2,4, 1, 4, 0,11, 0.00,60.00,Thursday
12,5187650.480659543
745,11305668.855261658
2,4, 1, 4, 0,12, 0.00,60.00,Thursday
12,9148658.888877705
745,10521351.843458604
2,4, 1, 4, 0,13, 0.00,60.00,Thursday
12,3923061.9929299426
745,8556851.517758398
2,4, 1, 4, 0,14, 0.00,60.00,Thursday
12,3912209.9515898136
745,7471480.594340305
2,4, 1, 4, 0,15, 0.00,60.00,Thursday
12,4983993.741028267
745,6244952.927413826
2,4, 1, 4, 0,16, 0.00,60.00,Thursday
12,4791526.266047256
745,6810571.990836207
2,4, 1, 4, 0,17, 0.00,60.00,Thursday
12,5224888.015000301
745,6224917.826535925
2,4, 1, 4, 0,18, 0.00,60.00,Thursday
12,6323514.178263914
745,5704393.541533033
2,4, 1, 4, 0,19, 0.00,60.00,Thursday
12,7076238.145647817
745,5437586.632802044
2,4, 1, 4, 0,20, 0.00,60.00,Thursday
12,9654508.510298688
745,4936170.371582835
2,4, 1, 4, 0,21, 0.00,60.00,Thursday
12,7627515.568947535
745,5421304.329625957
2,4, 1, 4, 0,22, 0.00,60.00,Thursday
12,5767628.850953121
745,5759771.81092881
2,4, 1, 4, 0,23, 0.00,60.00,Thursday
12,6230806.746271543
745,6529356.721082528
2,4, 1, 4, 0,24, 0.00,60.00,Thursday
12,3342938.6098061047
745,6024705.8128552199
2,5, 1, 5, 0, 1, 0.00,60.00,Friday
12,2649970.2367148136
745,7990240.740039751
2,5, 1, 5, 0, 2, 0.00,60.00,Friday
12,2123193.17644855
745,6656879.74650652
2,5, 1, 5, 0, 3, 0.00,60.00,Friday
12,2320024.686907525
745,6597858.946964784
2,5, 1, 5, 0, 4, 0.00,60.00,Friday
12,2953408.9014262047
745,6979366.622116463
2,5, 1, 5, 0, 5, 0.00,60.00,Friday
12,2062035.824266438
745,6876706.24517635
2,5, 1, 5, 0, 6, 0.00,60.00,Friday
12,6398726.02579149
745,6631200.430260595
2,5, 1, 5, 0, 7, 0.00,60.00,Friday
12,13951821.049763903
745,8428708.16484288
2,5, 1, 5, 0, 8, 0.00,60.00,Friday
12,4182335.655310098
745,4776000.840838911
2,5, 1, 5, 0, 9, 0.00,60.00,Friday
12,3928405.809744735
745,2588981.5209777124
2,5, 1, 5, 0,10, 0.00,60.00,Friday
12,3506103.5389876689
745,0.0
2,5, 1, 5, 0,11, 0.00,60.00,Friday
12,20389031.334340827
745,0.0
2,5, 1, 5, 0,12, 0.00,60.00,Friday
12,15360742.780939397
745,0.0
2,5, 1, 5, 0,13, 0.00,60.00,Friday
12,4815006.585447029
745,0.0
2,5, 1, 5, 0,14, 0.00,60.00,Friday
12,4713777.695641585
745,0.0
2,5, 1, 5, 0,15, 0.00,60.00,Friday
12,3621532.992798267
745,0.0
2,5, 1, 5, 0,16, 0.00,60.00,Friday
12,3939000.012432055
745,0.0
2,5, 1, 5, 0,17, 0.00,60.00,Friday
12,4740067.995483241
745,0.0
2,5, 1, 5, 0,18, 0.00,60.00,Friday
12,8732512.855209498
745,0.0
2,5, 1, 5, 0,19, 0.00,60.00,Friday
12,6929211.195642407
745,0.0
2,5, 1, 5, 0,20, 0.00,60.00,Friday
12,9759597.892261999
745,0.0
2,5, 1, 5, 0,21, 0.00,60.00,Friday
12,7745524.408580186
745,1320104.226653142
2,5, 1, 5, 0,22, 0.00,60.00,Friday
12,8869763.038657127
745,2966358.675744758
2,5, 1, 5, 0,23, 0.00,60.00,Friday
12,4925527.111276283
745,3826436.8467018518
2,5, 1, 5, 0,24, 0.00,60.00,Friday
12,3511661.159277905
745,5607625.037922673
2,6, 1, 6, 0, 1, 0.00,60.00,Saturday
12,2623222.414264902
745,7001009.8418619059
2,6, 1, 6, 0, 2, 0.00,60.00,Saturday
12,5041620.757656269
745,7797723.829536584
2,6, 1, 6, 0, 3, 0.00,60.00,Saturday
12,3374582.544303489
745,8600829.05475606
2,6, 1, 6, 0, 4, 0.00,60.00,Saturday
12,2208786.8313458545
745,9777913.221380469
2,6, 1, 6, 0, 5, 0.00,60.00,Saturday
12,2161064.8619014017
745,10539157.04949023
2,6, 1, 6, 0, 6, 0.00,60.00,Saturday
12,18102306.53463426
745,11840500.633088423
2,6, 1, 6, 0, 7, 0.00,60.00,Saturday
12,6220821.589821299
745,11314892.39711404
2,6, 1, 6, 0, 8, 0.00,60.00,Saturday
12,4386958.7926094899
745,11210525.703534827
2,6, 1, 6, 0, 9, 0.00,60.00,Saturday
12,4093636.308078909
745,8699800.993462632
2,6, 1, 6, 0,10, 0.00,60.00,Saturday
12,6506853.958651121
745,6978386.05655327
2,6, 1, 6, 0,11, 0.00,60.00,Saturday
12,3879631.648967437
745,4993082.318126603
2,6, 1, 6, 0,12, 0.00,60.00,Saturday
12,6061923.951150775
745,3212582.5859494728
2,6, 1, 6, 0,13, 0.00,60.00,Saturday
12,11367868.022948988
745,2982273.1607839607
2,6, 1, 6, 0,14, 0.00,60.00,Saturday
12,6366878.521364201
745,2858066.0123749466
2,6, 1, 6, 0,15, 0.00,60.00,Saturday
12,3856184.1076049979
745,2021195.2388992196
2,6, 1, 6, 0,16, 0.00,60.00,Saturday
12,5189383.901482521
745,1981482.1435117005
2,6, 1, 6, 0,17, 0.00,60.00,Saturday
12,4872054.405828952
745,4881333.256120435
2,6, 1, 6, 0,18, 0.00,60.00,Saturday
12,8915756.088500405
745,5568990.0902962279
2,6, 1, 6, 0,19, 0.00,60.00,Saturday
12,12120216.968235769
745,6613432.155741246
2,6, 1, 6, 0,20, 0.00,60.00,Saturday
12,8274961.297268638
745,7799037.755959361
2,6, 1, 6, 0,21, 0.00,60.00,Saturday
12,10699795.65667771
745,8552759.483507608
2,6, 1, 6, 0,22, 0.00,60.00,Saturday
12,25021434.463994914
745,10932278.197586673
2,6, 1, 6, 0,23, 0.00,60.00,Saturday
12,7653985.501946688
745,12113951.529657668
2,6, 1, 6, 0,24, 0.00,60.00,Saturday
12,4886615.788467693
745,14274793.0719715
2,7, 1, 7, 0, 1, 0.00,60.00,Sunday
12,2862368.795815438
745,15845505.137141612
2,7, 1, 7, 0, 2, 0.00,60.00,Sunday
12,2559032.8647883536
745,16118753.705026148
2,7, 1, 7, 0, 3, 0.00,60.00,Sunday
12,2503132.7709101599
745,18339844.694134594
2,7, 1, 7, 0, 4, 0.00,60.00,Sunday
12,5299303.125787374
745,18606915.532619586
2,7, 1, 7, 0, 5, 0.00,60.00,Sunday
12,15519088.88339324
745,18606915.532619586
2,7, 1, 7, 0, 6, 0.00,60.00,Sunday
12,3060388.5779372176
745,18606915.532619586
2,7, 1, 7, 0, 7, 0.00,60.00,Sunday
12,9133888.609687407
745,18606915.532619586
2,7, 1, 7, 0, 8, 0.00,60.00,Sunday
12,5686089.0166406449
745,15836185.434319422
2,7, 1, 7, 0, 9, 0.00,60.00,Sunday
12,4260940.518240433
745,14887313.804905247
2,7, 1, 7, 0,10, 0.00,60.00,Sunday
12,8260397.934112009
745,13749009.383742296
2,7, 1, 7, 0,11, 0.00,60.00,Sunday
12,4323350.126992863
745,12195198.55873136
2,7, 1, 7, 0,12, 0.00,60.00,Sunday
12,4082706.9790891476
745,10712719.591649514
2,7, 1, 7, 0,13, 0.00,60.00,Sunday
12,5367301.152831835
745,9909020.475905013
2,7, 1, 7, 0,14, 0.00,60.00,Sunday
12,3983762.136779911
745,9629367.26050172
2,7, 1, 7, 0,15, 0.00,60.00,Sunday
12,4054670.008099041
745,9361919.366594008
2,7, 1, 7, 0,16, 0.00,60.00,Sunday
12,4190651.2043890554
745,9306968.263054736
2,7, 1, 7, 0,17, 0.00,60.00,Sunday
12,11457266.93001722
745,9138061.326658376
2,7, 1, 7, 0,18, 0.00,60.00,Sunday
12,9577205.39995601
745,7891342.455292863
2,7, 1, 7, 0,19, 0.00,60.00,Sunday
12,7118122.038440619
745,6986603.9767071879
2,7, 1, 7, 0,20, 0.00,60.00,Sunday
12,7024117.180372701
745,7131452.410172692
2,7, 1, 7, 0,21, 0.00,60.00,Sunday
12,6569183.70825367
745,8249531.243926493
2,7, 1, 7, 0,22, 0.00,60.00,Sunday
12,7093088.6511405459
745,9540384.151965196
2,7, 1, 7, 0,23, 0.00,60.00,Sunday
12,6231199.972921712
745,10026293.88888942
2,7, 1, 7, 0,24, 0.00,60.00,Sunday
12,3625975.8708858455
745,9835395.16951478
2,8, 1, 8, 0, 1, 0.00,60.00,Monday
12,2718891.288073428
745,10539189.674724697
2,8, 1, 8, 0, 2, 0.00,60.00,Monday
12,3563978.032775064
745,11313860.363789808
2,8, 1, 8, 0, 3, 0.00,60.00,Monday
12,2346246.602588198
745,12537628.626212083
2,8, 1, 8, 0, 4, 0.00,60.00,Monday
12,2359681.3448062737
745,15358536.2930374
2,8, 1, 8, 0, 5, 0.00,60.00,Monday
12,2301979.7688546578
745,15750698.296747106
2,8, 1, 8, 0, 6, 0.00,60.00,Monday
12,2721129.023395506
745,14661579.604532639
2,8, 1, 8, 0, 7, 0.00,60.00,Monday
12,3803191.0972962395
745,15141698.1962526
2,8, 1, 8, 0, 8, 0.00,60.00,Monday
12,5593462.202624795
745,12916182.657054035
2,8, 1, 8, 0, 9, 0.00,60.00,Monday
12,10507122.342287906
745,8494226.73253751
2,8, 1, 8, 0,10, 0.00,60.00,Monday
12,3823867.2974547159
745,5095000.416572757
2,8, 1, 8, 0,11, 0.00,60.00,Monday
12,3844973.9178265489
745,3711314.481903336
2,8, 1, 8, 0,12, 0.00,60.00,Monday
12,5004012.100652995
745,2287793.5601687908
2,8, 1, 8, 0,13, 0.00,60.00,Monday
12,4748649.997009262
745,202258.80313148746
2,8, 1, 8, 0,14, 0.00,60.00,Monday
12,3530188.525911049
745,0.0
2,8, 1, 8, 0,15, 0.00,60.00,Monday
12,4991500.925108062
745,0.0
2,8, 1, 8, 0,16, 0.00,60.00,Monday
12,5453564.29429769
745,0.0
2,8, 1, 8, 0,17, 0.00,60.00,Monday
12,4740067.995483241
745,0.0
2,8, 1, 8, 0,18, 0.00,60.00,Monday
12,7478966.247293383
745,1680914.995358955
2,8, 1, 8, 0,19, 0.00,60.00,Monday
12,16772358.394789646
745,3871199.7104709434
2,8, 1, 8, 0,20, 0.00,60.00,Monday
12,6966105.3950035399
745,4985967.458898593
2,8, 1, 8, 0,21, 0.00,60.00,Monday
12,6486894.771298733
745,5206189.709621449
2,8, 1, 8, 0,22, 0.00,60.00,Monday
12,6983698.018617362
745,6809434.862080696
2,8, 1, 8, 0,23, 0.00,60.00,Monday
12,5019549.805779201
745,7303735.034485022
2,8, 1, 8, 0,24, 0.00,60.00,Monday
12,3624622.0226538928
745,9785324.981371472
2,9, 1, 9, 0, 1, 0.00,60.00,Tuesday
12,2748949.7900486628
745,11650861.436511044
2,9, 1, 9, 0, 2, 0.00,60.00,Tuesday
12,2460654.0354319645
745,12480349.94680814
2,9, 1, 9, 0, 3, 0.00,60.00,Tuesday
12,2366200.114353998
745,13275581.422289126
2,9, 1, 9, 0, 4, 0.00,60.00,Tuesday
12,2320866.1913837816
745,13923011.993631503
2,9, 1, 9, 0, 5, 0.00,60.00,Tuesday
12,3398637.9392886639
745,14339085.012595043
2,9, 1, 9, 0, 6, 0.00,60.00,Tuesday
12,2719177.9657259525
745,14589422.458489677
2,9, 1, 9, 0, 7, 0.00,60.00,Tuesday
12,3783383.0819961775
745,14409126.38398285
2,9, 1, 9, 0, 8, 0.00,60.00,Tuesday
12,5606417.11404605
745,12025802.860084063
2,9, 1, 9, 0, 9, 0.00,60.00,Tuesday
12,4085962.9706631659
745,8416013.313997832
2,9, 1, 9, 0,10, 0.00,60.00,Tuesday
12,5134252.47976231
745,6090258.280986113
2,9, 1, 9, 0,11, 0.00,60.00,Tuesday
12,5090879.021236603
745,4285851.807338758
2,9, 1, 9, 0,12, 0.00,60.00,Tuesday
12,5013264.9938826239
745,3156828.4230260539
2,9, 1, 9, 0,13, 0.00,60.00,Tuesday
12,3759882.262996736
745,2521876.853614161
2,9, 1, 9, 0,14, 0.00,60.00,Tuesday
12,3754417.6419054956
745,1635752.1522632749
2,9, 1, 9, 0,15, 0.00,60.00,Tuesday
12,3804931.478589115
745,125688.2558429122
2,9, 1, 9, 0,16, 0.00,60.00,Tuesday
12,5130136.171723391
745,0.0
2,9, 1, 9, 0,17, 0.00,60.00,Tuesday
12,4789746.911832913
745,1837305.4155386245
2,9, 1, 9, 0,18, 0.00,60.00,Tuesday
12,7445483.549755238
745,3740560.6261538246
2,9, 1, 9, 0,19, 0.00,60.00,Tuesday
12,7051433.595096657
745,4520224.93479573
2,9, 1, 9, 0,20, 0.00,60.00,Tuesday
12,6961080.161027663
745,4800116.190862898
2,9, 1, 9, 0,21, 0.00,60.00,Tuesday
12,6525283.469243084
745,6625942.148104325
2,9, 1, 9, 0,22, 0.00,60.00,Tuesday
12,5823454.820483761
745,7824417.412785146
2,9, 1, 9, 0,23, 0.00,60.00,Tuesday
12,5074343.48998114
745,9330203.003571472
2,9, 1, 9, 0,24, 0.00,60.00,Tuesday
12,9562681.689619616
745,11957043.839804799
2,10, 1,10, 0, 1, 0.00,60.00,Wednesday
12,3341203.5261735368
745,12989939.035853604
2,10, 1,10, 0, 2, 0.00,60.00,Wednesday
12,2502909.1170164069
745,14043095.190337094
2,10, 1,10, 0, 3, 0.00,60.00,Wednesday
12,2398175.5180561176
745,14458147.120228833
2,10, 1,10, 0, 4, 0.00,60.00,Wednesday
12,2373656.81226089
745,15875399.46006621
2,10, 1,10, 0, 5, 0.00,60.00,Wednesday
12,2322521.184034526
745,16510393.880425994
2,10, 1,10, 0, 6, 0.00,60.00,Wednesday
12,3916435.730710039
745,16899725.51996597
2,10, 1,10, 0, 7, 0.00,60.00,Wednesday
12,3823376.8323912776
745,15888239.448193299
2,10, 1,10, 0, 8, 0.00,60.00,Wednesday
12,4477434.99491111
745,14556661.824864159
2,10, 1,10, 0, 9, 0.00,60.00,Wednesday
12,4132465.1180755405
745,10135830.362211183
2,10, 1,10, 0,10, 0.00,60.00,Wednesday
12,17360324.626595599
745,7550290.954232819
2,10, 1,10, 0,11, 0.00,60.00,Wednesday
12,13381851.659851099
745,4931533.361074851
2,10, 1,10, 0,12, 0.00,60.00,Wednesday
12,4647419.68995204
745,2089102.0960836099
2,10, 1,10, 0,13, 0.00,60.00,Wednesday
12,3695257.7410597444
745,131829.06562101746
2,10, 1,10, 0,14, 0.00,60.00,Wednesday
12,3710188.525911049
745,0.0
2,10, 1,10, 0,15, 0.00,60.00,Wednesday
12,4937554.867334293
745,0.0
2,10, 1,10, 0,16, 0.00,60.00,Wednesday
12,3939000.012432055
745,0.0
2,10, 1,10, 0,17, 0.00,60.00,Wednesday
12,4740067.995483241
745,0.0
2,10, 1,10, 0,18, 0.00,60.00,Wednesday
12,6217228.067493604
745,1773550.0114462383
2,10, 1,10, 0,19, 0.00,60.00,Wednesday
12,8246591.286021315
745,3505622.8901559037
2,10, 1,10, 0,20, 0.00,60.00,Wednesday
12,17432518.950910264
745,3961258.6260332416
2,10, 1,10, 0,21, 0.00,60.00,Wednesday
12,6834504.5725931799
745,5068921.209950729
2,10, 1,10, 0,22, 0.00,60.00,Wednesday
12,5808168.201693993
745,7259063.142775982
2,10, 1,10, 0,23, 0.00,60.00,Wednesday
12,5060389.320806131
745,8814127.523701322
2,10, 1,10, 0,24, 0.00,60.00,Wednesday
12,4864071.800934594
745,12111237.42559899
2,11, 1,11, 0, 1, 0.00,60.00,Thursday
12,2785841.978838923
745,13015267.57166755
2,11, 1,11, 0, 2, 0.00,60.00,Thursday
12,3691411.7348877585
745,14419760.28912688
2,11, 1,11, 0, 3, 0.00,60.00,Thursday
12,2403380.3228308979
745,14650639.563747852
2,11, 1,11, 0, 4, 0.00,60.00,Thursday
12,2368386.544984701
745,15680485.977257492
2,11, 1,11, 0, 5, 0.00,60.00,Thursday
12,2315398.988112992
745,16246989.400242584
2,11, 1,11, 0, 6, 0.00,60.00,Thursday
12,3883619.800618636
745,15684460.975212865
2,11, 1,11, 0, 7, 0.00,60.00,Thursday
12,3806811.765440328
745,15275603.556469776
2,11, 1,11, 0, 8, 0.00,60.00,Thursday
12,5674259.1145654399
745,14436942.929241904
2,11, 1,11, 0, 9, 0.00,60.00,Thursday
12,15683453.370102223
745,13002449.378336885
2,11, 1,11, 0,10, 0.00,60.00,Thursday
12,5321549.159738213
745,8031644.926053944
2,11, 1,11, 0,11, 0.00,60.00,Thursday
12,4969179.966986233
745,4444673.586733939
2,11, 1,11, 0,12, 0.00,60.00,Thursday
12,8961299.734096704
745,2415027.2217271828
2,11, 1,11, 0,13, 0.00,60.00,Thursday
12,3531813.7356279699
745,744129.427926108
2,11, 1,11, 0,14, 0.00,60.00,Thursday
12,3530188.525911049
745,0.0
2,11, 1,11, 0,15, 0.00,60.00,Thursday
12,4815918.845695574
745,0.0
2,11, 1,11, 0,16, 0.00,60.00,Thursday
12,4956315.258540102
745,731003.6049221151
2,11, 1,11, 0,17, 0.00,60.00,Thursday
12,4782873.972967847
745,1583119.3598571914
2,11, 1,11, 0,18, 0.00,60.00,Thursday
12,6214017.569858789
745,1654814.235297283
2,11, 1,11, 0,19, 0.00,60.00,Thursday
12,8111122.482530554
745,1565681.4726302522
2,11, 1,11, 0,20, 0.00,60.00,Thursday
12,9598847.555846882
745,2700849.1382878667
2,11, 1,11, 0,21, 0.00,60.00,Thursday
12,6440170.793693891
745,3478168.581208722
2,11, 1,11, 0,22, 0.00,60.00,Thursday
12,5706464.834842892
745,3497706.0032844997
2,11, 1,11, 0,23, 0.00,60.00,Thursday
12,6186613.4076297129
745,4839084.842196767
2,11, 1,11, 0,24, 0.00,60.00,Thursday
12,3526057.234959645
745,6140043.813453
2,12, 1,12, 0, 1, 0.00,60.00,Friday
12,2638586.1248684159
745,7569215.245053844
2,12, 1,12, 0, 2, 0.00,60.00,Friday
12,3509191.688491607
745,9290581.10833709
2,12, 1,12, 0, 3, 0.00,60.00,Friday
12,2287202.9080588419
745,10353979.954235537
2,12, 1,12, 0, 4, 0.00,60.00,Friday
12,2276412.8945342705
745,12278968.825192057
2,12, 1,12, 0, 5, 0.00,60.00,Friday
12,2241715.8732108587
745,13521922.188821024
2,12, 1,12, 0, 6, 0.00,60.00,Friday
12,7256504.58052535
745,14103898.949604838
2,12, 1,12, 0, 7, 0.00,60.00,Friday
12,13461836.531996208
745,15045434.437806549
2,12, 1,12, 0, 8, 0.00,60.00,Friday
12,4457984.153377183
745,13837299.58605188
2,12, 1,12, 0, 9, 0.00,60.00,Friday
12,4195447.355884165
745,12465140.562820895
2,12, 1,12, 0,10, 0.00,60.00,Friday
12,3990007.8222285558
745,11239475.947376514
2,12, 1,12, 0,11, 0.00,60.00,Friday
12,21039695.348026653
745,10440724.612005625
2,12, 1,12, 0,12, 0.00,60.00,Friday
12,15982007.257147093
745,8183358.719049542
2,12, 1,12, 0,13, 0.00,60.00,Friday
12,5211815.439502077
745,7916341.484375523
2,12, 1,12, 0,14, 0.00,60.00,Friday
12,5094787.056776534
745,7401319.845410256
2,12, 1,12, 0,15, 0.00,60.00,Friday
12,3994047.9025470905
745,7119895.364943468
2,12, 1,12, 0,16, 0.00,60.00,Friday
12,4123518.244448282
745,6824149.394942778
2,12, 1,12, 0,17, 0.00,60.00,Friday
12,6094601.857574712
745,8127200.179200486
2,12, 1,12, 0,18, 0.00,60.00,Friday
12,7677223.705126027
745,8317637.816436967
2,12, 1,12, 0,19, 0.00,60.00,Friday
12,8303399.658040004
745,7563833.14433416
2,12, 1,12, 0,20, 0.00,60.00,Friday
12,8694038.95327145
745,7385360.22393315
2,12, 1,12, 0,21, 0.00,60.00,Friday
12,7951198.862347268
745,8879042.11767489
2,12, 1,12, 0,22, 0.00,60.00,Friday
12,9060428.01672677
745,9863096.010879903
2,12, 1,12, 0,23, 0.00,60.00,Friday
12,5113787.025428919
745,10788967.135544584
2,12, 1,12, 0,24, 0.00,60.00,Friday
12,4808419.166347217
745,11595622.241015362
2,13, 1,13, 0, 1, 0.00,60.00,Saturday
12,2745350.2721942986
745,11517738.290253157
2,13, 1,13, 0, 2, 0.00,60.00,Saturday
12,5129312.567851992
745,10838597.405512395
2,13, 1,13, 0, 3, 0.00,60.00,Saturday
12,2315671.254859116
745,11406842.045256598
2,13, 1,13, 0, 4, 0.00,60.00,Saturday
12,2248445.924335587
745,11244649.448324493
2,13, 1,13, 0, 5, 0.00,60.00,Saturday
12,2178220.3844330355
745,11173630.117137438
2,13, 1,13, 0, 6, 0.00,60.00,Saturday
12,18478423.524362886
745,12384184.069298765
2,13, 1,13, 0, 7, 0.00,60.00,Saturday
12,6482451.487337116
745,11511836.125371663
2,13, 1,13, 0, 8, 0.00,60.00,Saturday
12,4336380.788305065
745,9339968.77428189
2,13, 1,13, 0, 9, 0.00,60.00,Saturday
12,3990122.674673399
745,4871493.670908087
2,13, 1,13, 0,10, 0.00,60.00,Saturday
12,6381780.335425444
745,2163687.276924993
2,13, 1,13, 0,11, 0.00,60.00,Saturday
12,3758690.935069853
745,520258.7356008022
2,13, 1,13, 0,12, 0.00,60.00,Saturday
12,5976266.471301947
745,0.0
2,13, 1,13, 0,13, 0.00,60.00,Saturday
12,11306953.871181526
745,0.0
2,13, 1,13, 0,14, 0.00,60.00,Saturday
12,6150911.795078642
745,0.0
2,13, 1,13, 0,15, 0.00,60.00,Saturday
12,3801532.992798267
745,0.0
2,13, 1,13, 0,16, 0.00,60.00,Saturday
12,5136322.161209634
745,0.0
2,13, 1,13, 0,17, 0.00,60.00,Saturday
12,4740067.995483241
745,0.0
2,13, 1,13, 0,18, 0.00,60.00,Saturday
12,8768875.23938175
745,0.0
2,13, 1,13, 0,19, 0.00,60.00,Saturday
12,11968891.464684433
745,0.0
2,13, 1,13, 0,20, 0.00,60.00,Saturday
12,8065287.224028747
745,0.0
2,13, 1,13, 0,21, 0.00,60.00,Saturday
12,10472528.787487586
745,0.0
2,13, 1,13, 0,22, 0.00,60.00,Saturday
12,24844379.007581064
745,567445.672444069
2,13, 1,13, 0,23, 0.00,60.00,Saturday
12,7601013.508853065
745,3146644.3711892638
2,13, 1,13, 0,24, 0.00,60.00,Saturday
12,4608960.66874492
745,4003415.47702409
2,14, 1,14, 0, 1, 0.00,60.00,Sunday
12,2551469.7391573495
745,4347337.25314086
2,14, 1,14, 0, 2, 0.00,60.00,Sunday
12,2241794.4836619126
745,4386134.749376011
2,14, 1,14, 0, 3, 0.00,60.00,Sunday
12,2149601.334762574
745,5264977.729944115
2,14, 1,14, 0, 4, 0.00,60.00,Sunday
12,4968584.779084034
745,6055884.148734138
2,14, 1,14, 0, 5, 0.00,60.00,Sunday
12,15285843.401432194
745,7287902.499402248
2,14, 1,14, 0, 6, 0.00,60.00,Sunday
12,2838566.7730686438
745,6812729.315307466
2,14, 1,14, 0, 7, 0.00,60.00,Sunday
12,8860436.636977196
745,7274088.345513977
2,14, 1,14, 0, 8, 0.00,60.00,Sunday
12,5436385.127338508
745,6583874.092102178
2,14, 1,14, 0, 9, 0.00,60.00,Sunday
12,3977344.8695794858
745,4398924.375464935
2,14, 1,14, 0,10, 0.00,60.00,Sunday
12,8054916.768193975
745,2725305.894633333
2,14, 1,14, 0,11, 0.00,60.00,Sunday
12,3642723.4622017976
745,731023.493928617
2,14, 1,14, 0,12, 0.00,60.00,Sunday
12,3613045.6653140357
745,0.0
2,14, 1,14, 0,13, 0.00,60.00,Sunday
12,4920367.379804962
745,0.0
2,14, 1,14, 0,14, 0.00,60.00,Sunday
12,3543393.595660419
745,0.0
2,14, 1,14, 0,15, 0.00,60.00,Sunday
12,3621532.992798267
745,0.0
2,14, 1,14, 0,16, 0.00,60.00,Sunday
12,3759000.012432055
745,0.0
2,14, 1,14, 0,17, 0.00,60.00,Sunday
12,11161681.642211743
745,0.0
2,14, 1,14, 0,18, 0.00,60.00,Sunday
12,9297613.257700265
745,0.0
2,14, 1,14, 0,19, 0.00,60.00,Sunday
12,6933965.198072389
745,175820.1476982648
2,14, 1,14, 0,20, 0.00,60.00,Sunday
12,6869914.715997799
745,1428489.38877254
2,14, 1,14, 0,21, 0.00,60.00,Sunday
12,6430482.155346698
745,3119847.8082836915
2,14, 1,14, 0,22, 0.00,60.00,Sunday
12,6958422.8180536939
745,4516348.9072860139
2,14, 1,14, 0,23, 0.00,60.00,Sunday
12,6110494.865587387
745,5559361.940047801
2,14, 1,14, 0,24, 0.00,60.00,Sunday
12,3567871.2891412775
745,7686478.273753891
2,15, 1,15, 0, 1, 0.00,60.00,Monday
12,3806109.586079057
745,8778787.481720597
2,15, 1,15, 0, 2, 0.00,60.00,Monday
12,2394617.9879461114
745,10038098.85556981
2,15, 1,15, 0, 3, 0.00,60.00,Monday
12,2298882.4259719836
745,10785930.630487299
2,15, 1,15, 0, 4, 0.00,60.00,Monday
12,2264405.6044032468
745,11834895.95072769
2,15, 1,15, 0, 5, 0.00,60.00,Monday
12,2211156.243688189
745,12391716.923801672
2,15, 1,15, 0, 6, 0.00,60.00,Monday
12,2656287.559009292
745,12263508.502705306
2,15, 1,15, 0, 7, 0.00,60.00,Monday
12,3751769.80732207
745,13239953.522948193
2,15, 1,15, 0, 8, 0.00,60.00,Monday
12,5554281.394118405
745,11454653.91120587
2,15, 1,15, 0, 9, 0.00,60.00,Monday
12,10459138.091805242
745,5964374.091658291
2,15, 1,15, 0,10, 0.00,60.00,Monday
12,3753768.8846937424
745,2502508.4129252245
2,15, 1,15, 0,11, 0.00,60.00,Monday
12,3575776.507115545
745,412472.6835469093
2,15, 1,15, 0,12, 0.00,60.00,Monday