Program Version,EnergyPlus, Version 9.2.0-921312fa1d, YMD=2019.10.24 09:57
1,5,Environment Title[],Latitude[deg],Longitude[deg],Time Zone[],Elevation[m]
2,8,Day of Simulation[],Month[],Day of Month[],DST Indicator[1=yes 0=no],Hour[],StartMinute[],EndMinute[],DayType
3,5,Cumulative Day of Simulation[],Month[],Day of Month[],DST Indicator[1=yes 0=no],DayType  ! When Daily Meters Requested
4,2,Cumulative Days of Simulation[],Month[]  ! When Monthly Meters Requested
5,1,Cumulative Days of Simulation[] ! When Run Period Meters Requested
6,1,Calendar Year of Simulation[] ! When Annual Meters Requested
12,1,Electricity:Facility [J] !Hourly
574,1,Gas:Facility [J] !Hourly
End of Data Dictionary
1,RUN PERIOD 1,  39.83,-104.65,  -7.00,1650.00
2,1, 1, 1, 0, 1, 0.00,60.00,Monday
12,2714577.6668871326
574,10379656.412960723
2,1, 1, 1, 0, 2, 0.00,60.00,Monday
12,2472394.9806552475
574,12914572.426429984
2,1, 1, 1, 0, 3, 0.00,60.00,Monday
12,2391943.2910118398
574,14227656.897400255
2,1, 1, 1, 0, 4, 0.00,60.00,Monday
12,2358424.5243185379
574,15312054.540653285
2,1, 1, 1, 0, 5, 0.00,60.00,Monday
12,2303622.777475399
574,15811462.678470256
2,1, 1, 1, 0, 6, 0.00,60.00,Monday
12,2741455.9670656949
574,15413343.258629198
2,1, 1, 1, 0, 7, 0.00,60.00,Monday
12,3795044.693971144
574,14840414.834091286
2,1, 1, 1, 0, 8, 0.00,60.00,Monday
12,5620384.795065745
574,13920000.490320936
2,1, 1, 1, 0, 9, 0.00,60.00,Monday
12,10592875.99951556
574,12265988.31615047
2,1, 1, 1, 0,10, 0.00,60.00,Monday
12,3897062.055212883
574,7802006.420317975
2,1, 1, 1, 0,11, 0.00,60.00,Monday
12,3875956.251230876
574,4857152.860283542
2,1, 1, 1, 0,12, 0.00,60.00,Monday
12,5030763.260670962
574,3280734.828472219
2,1, 1, 1, 0,13, 0.00,60.00,Monday
12,5003882.440065091
574,3020456.3100221336
2,1, 1, 1, 0,14, 0.00,60.00,Monday
12,3792385.88510679
574,3039954.658638728
2,1, 1, 1, 0,15, 0.00,60.00,Monday
12,5052525.474481328
574,2272888.303775223
2,1, 1, 1, 0,16, 0.00,60.00,Monday
12,5512232.676957494
574,2196855.1494397895
2,1, 1, 1, 0,17, 0.00,60.00,Monday
12,4845321.74599289
574,3892663.126062858
2,1, 1, 1, 0,18, 0.00,60.00,Monday
12,7586320.428660622
574,5689269.5656422949
2,1, 1, 1, 0,19, 0.00,60.00,Monday
12,16767623.018795515
574,7657901.585465173
2,1, 1, 1, 0,20, 0.00,60.00,Monday
12,7050715.734491874
574,8115162.827378197
2,1, 1, 1, 0,21, 0.00,60.00,Monday
12,6575456.916510457
574,8481537.09972802
2,1, 1, 1, 0,22, 0.00,60.00,Monday
12,7057157.634240538
574,9543507.065286875
2,1, 1, 1, 0,23, 0.00,60.00,Monday
12,5117451.831896927
574,10924504.890095815
2,1, 1, 1, 0,24, 0.00,60.00,Monday
12,3725906.5741129366
574,13531192.817865262
2,2, 1, 2, 0, 1, 0.00,60.00,Tuesday
12,2830059.6792893188
574,14650597.535959598
2,2, 1, 2, 0, 2, 0.00,60.00,Tuesday
12,2527122.857712625
574,14938606.610080524
2,2, 1, 2, 0, 3, 0.00,60.00,Tuesday
12,2417663.5352438886
574,15178884.248735819
2,2, 1, 2, 0, 4, 0.00,60.00,Tuesday
12,3520259.728198331
574,16311890.102204746
2,2, 1, 2, 0, 5, 0.00,60.00,Tuesday
12,2286880.242028844
574,15192263.362018066
2,2, 1, 2, 0, 6, 0.00,60.00,Tuesday
12,2738924.2261052939
574,15319710.351169117
2,2, 1, 2, 0, 7, 0.00,60.00,Tuesday
12,3777175.5339272564
574,14179548.878628906
2,2, 1, 2, 0, 8, 0.00,60.00,Tuesday
12,5617399.754381896
574,12455671.051226775
2,2, 1, 2, 0, 9, 0.00,60.00,Tuesday
12,4162490.505436949
574,11246277.426202458
2,2, 1, 2, 0,10, 0.00,60.00,Tuesday
12,5164400.933165593
574,7265696.903065594
2,2, 1, 2, 0,11, 0.00,60.00,Tuesday
12,5630438.847724394
574,3700605.446919388
2,2, 1, 2, 0,12, 0.00,60.00,Tuesday
12,4463153.307993864
574,1839777.2952125949
2,2, 1, 2, 0,13, 0.00,60.00,Tuesday
12,3716974.0717969548
574,934977.2620966721
2,2, 1, 2, 0,14, 0.00,60.00,Tuesday
12,3730173.654451009
574,739122.0983616798
2,2, 1, 2, 0,15, 0.00,60.00,Tuesday
12,3621532.992798267
574,0.0
2,2, 1, 2, 0,16, 0.00,60.00,Tuesday
12,5129453.150208822
574,0.0
2,2, 1, 2, 0,17, 0.00,60.00,Tuesday
12,4765374.601517435
574,935929.5196428988
2,2, 1, 2, 0,18, 0.00,60.00,Tuesday
12,7395332.824041409
574,1902991.041407552
2,2, 1, 2, 0,19, 0.00,60.00,Tuesday
12,7016356.61896302
574,3222951.907392519
2,2, 1, 2, 0,20, 0.00,60.00,Tuesday
12,6943582.719542497
574,4152997.727720742
2,2, 1, 2, 0,21, 0.00,60.00,Tuesday
12,6500528.119525646
574,5710400.074294513
2,2, 1, 2, 0,22, 0.00,60.00,Tuesday
12,5774347.113959559
574,6008237.395762835
2,2, 1, 2, 0,23, 0.00,60.00,Tuesday
12,4987889.5413061729
574,6132824.321291391
2,2, 1, 2, 0,24, 0.00,60.00,Tuesday
12,9328714.0355689
574,8011640.263852452
2,3, 1, 3, 0, 1, 0.00,60.00,Wednesday
12,3306579.6152009998
574,9273001.404999812
2,3, 1, 3, 0, 2, 0.00,60.00,Wednesday
12,2404974.8032530525
574,10421131.221196315
2,3, 1, 3, 0, 3, 0.00,60.00,Wednesday
12,2311999.277852503
574,11271039.098338487
2,3, 1, 3, 0, 4, 0.00,60.00,Wednesday
12,2275838.9421473026
574,12257741.996864828
2,3, 1, 3, 0, 5, 0.00,60.00,Wednesday
12,2225414.783441393
574,12919049.124887582
2,3, 1, 3, 0, 6, 0.00,60.00,Wednesday
12,3813840.971320037
574,13105536.12729381
2,3, 1, 3, 0, 7, 0.00,60.00,Wednesday
12,3725436.9108286558
574,12266068.08241989
2,3, 1, 3, 0, 8, 0.00,60.00,Wednesday
12,4407749.323401994
574,11979434.48061294
2,3, 1, 3, 0, 9, 0.00,60.00,Wednesday
12,4097168.911791468
574,8830449.413535905
2,3, 1, 3, 0,10, 0.00,60.00,Wednesday
12,16564455.899943276
574,7326522.367272078
2,3, 1, 3, 0,11, 0.00,60.00,Wednesday
12,14306292.692736354
574,4523960.03029404
2,3, 1, 3, 0,12, 0.00,60.00,Wednesday
12,4198799.151675638
574,2848930.2630218847
2,3, 1, 3, 0,13, 0.00,60.00,Wednesday
12,3769152.0155816494
574,2864705.720996988
2,3, 1, 3, 0,14, 0.00,60.00,Wednesday
12,3806818.226371676
574,3573714.6661686014
2,3, 1, 3, 0,15, 0.00,60.00,Wednesday
12,5009459.365392905
574,2658701.389286411
2,3, 1, 3, 0,16, 0.00,60.00,Wednesday
12,4062358.0562586437
574,4562225.157601276
2,3, 1, 3, 0,17, 0.00,60.00,Wednesday
12,4914987.513504712
574,6469154.348741718
2,3, 1, 3, 0,18, 0.00,60.00,Wednesday
12,6374555.8664893149
574,7592099.173730895
2,3, 1, 3, 0,19, 0.00,60.00,Wednesday
12,8357907.222820346
574,7666599.900605736
2,3, 1, 3, 0,20, 0.00,60.00,Wednesday
12,17460911.75969291
574,8330947.233092651
2,3, 1, 3, 0,21, 0.00,60.00,Wednesday
12,7016293.330645169
574,10674977.479169283
2,3, 1, 3, 0,22, 0.00,60.00,Wednesday
12,5949373.205882735
574,12481333.231580839
2,3, 1, 3, 0,23, 0.00,60.00,Wednesday
12,5216755.780731125
574,14597122.901592495
2,3, 1, 3, 0,24, 0.00,60.00,Wednesday
12,4984059.981179959
574,16569268.977100077
2,4, 1, 4, 0, 1, 0.00,60.00,Thursday
12,2928311.419542473
574,18284301.080992897
2,4, 1, 4, 0, 2, 0.00,60.00,Thursday
12,3804071.2481183905
574,18606915.532619586
2,4, 1, 4, 0, 3, 0.00,60.00,Thursday
12,2510354.101524179
574,18606915.532619586
2,4, 1, 4, 0, 4, 0.00,60.00,Thursday
12,2447514.297972584
574,18606915.532619586
2,4, 1, 4, 0, 5, 0.00,60.00,Thursday
12,2379209.0503542728
574,18606915.532619586
2,4, 1, 4, 0, 6, 0.00,60.00,Thursday
12,3962620.2842947815
574,18606915.532619586
2,4, 1, 4, 0, 7, 0.00,60.00,Thursday
12,3896887.1375576464
574,18606915.532619586
2,4, 1, 4, 0, 8, 0.00,60.00,Thursday
12,5497069.027216916
574,18050367.60813775
2,4, 1, 4, 0, 9, 0.00,60.00,Thursday
12,15684602.762626153
574,16379400.267152772
2,4, 1, 4, 0,10, 0.00,60.00,Thursday
12,5628450.192827375
574,12829344.104543573
2,4, 1, 4, 0,11, 0.00,60.00,Thursday
12,5174802.677846601
574,10830510.792124656
2,4, 1, 4, 0,12, 0.00,60.00,Thursday
12,9136129.297603563
574,10057962.392838439
2,4, 1, 4, 0,13, 0.00,60.00,Thursday
12,3910986.35673172
574,8110250.959346356
2,4, 1, 4, 0,14, 0.00,60.00,Thursday
12,3900633.097687202
574,7043326.803294329
2,4, 1, 4, 0,15, 0.00,60.00,Thursday
12,4972947.556117613
574,5836425.188839247
2,4, 1, 4, 0,16, 0.00,60.00,Thursday
12,4780924.153533067
574,6418476.80036792
2,4, 1, 4, 0,17, 0.00,60.00,Thursday
12,5214735.469872475
574,5849431.292621996
2,4, 1, 4, 0,18, 0.00,60.00,Thursday
12,6313830.879984983
574,5346270.263582892
2,4, 1, 4, 0,19, 0.00,60.00,Thursday
12,7067040.424165495
574,5097421.735259989
2,4, 1, 4, 0,20, 0.00,60.00,Thursday
12,9645638.632797365
574,4608130.326546674
2,4, 1, 4, 0,21, 0.00,60.00,Thursday
12,7618829.961208034
574,5100079.244480826
2,4, 1, 4, 0,22, 0.00,60.00,Thursday
12,5759008.41172391
574,5440956.89216788
2,4, 1, 4, 0,23, 0.00,60.00,Thursday
12,6222176.711810179
574,6210186.936140767
2,4, 1, 4, 0,24, 0.00,60.00,Thursday
12,3334267.764354896
574,5704026.690294021
2,5, 1, 5, 0, 1, 0.00,60.00,Friday
12,2641208.7276455576
574,7666208.550047314
2,5, 1, 5, 0, 2, 0.00,60.00,Friday
12,2114454.708524157
574,6333699.701112782
2,5, 1, 5, 0, 3, 0.00,60.00,Friday
12,2311334.420283675
574,6276470.769571286
2,5, 1, 5, 0, 4, 0.00,60.00,Friday
12,2944786.5313225958
574,6660471.078718414
2,5, 1, 5, 0, 5, 0.00,60.00,Friday
12,2053508.4841193306
574,6561334.466087132
2,5, 1, 5, 0, 6, 0.00,60.00,Friday
12,6390343.824993489
574,6321196.427656636
2,5, 1, 5, 0, 7, 0.00,60.00,Friday
12,13943534.334038284
574,8122235.673956733
2,5, 1, 5, 0, 8, 0.00,60.00,Friday
12,4174273.4816222947
574,4477832.538528262
2,5, 1, 5, 0, 9, 0.00,60.00,Friday
12,3920853.6669396965
574,2309676.055114639
2,5, 1, 5, 0,10, 0.00,60.00,Friday
12,3506103.5389876689
574,0.0
2,5, 1, 5, 0,11, 0.00,60.00,Friday
12,20389030.304587537
574,0.0
2,5, 1, 5, 0,12, 0.00,60.00,Friday
12,15360492.741622625
574,0.0
2,5, 1, 5, 0,13, 0.00,60.00,Friday
12,4814980.8746537
574,0.0
2,5, 1, 5, 0,14, 0.00,60.00,Friday
12,4713754.414399066
574,0.0
2,5, 1, 5, 0,15, 0.00,60.00,Friday
12,3621532.992798267
574,0.0
2,5, 1, 5, 0,16, 0.00,60.00,Friday
12,3939000.012432055
574,0.0
2,5, 1, 5, 0,17, 0.00,60.00,Friday
12,4740067.995483241
574,0.0
2,5, 1, 5, 0,18, 0.00,60.00,Friday
12,8732458.101589917
574,0.0
2,5, 1, 5, 0,19, 0.00,60.00,Friday
12,6929211.195642407
574,0.0
2,5, 1, 5, 0,20, 0.00,60.00,Friday
12,9759545.431607513
574,0.0
2,5, 1, 5, 0,21, 0.00,60.00,Friday
12,7734770.89125341
574,923227.906887361
2,5, 1, 5, 0,22, 0.00,60.00,Friday
12,8864086.957184973
574,2756595.113973109
2,5, 1, 5, 0,23, 0.00,60.00,Friday
12,4919536.331727936
574,3604876.2226736985
2,5, 1, 5, 0,24, 0.00,60.00,Friday
12,3503931.581869699
574,5321757.4007954639
2,6, 1, 6, 0, 1, 0.00,60.00,Saturday
12,2615368.050510565
574,6710527.155808922
2,6, 1, 6, 0, 2, 0.00,60.00,Saturday
12,5033676.361346319
574,7504275.689948808
2,6, 1, 6, 0, 3, 0.00,60.00,Saturday
12,3366616.346563832
574,8306281.142364171
2,6, 1, 6, 0, 4, 0.00,60.00,Saturday
12,2200820.2040599465
574,9483278.625228007
2,6, 1, 6, 0, 5, 0.00,60.00,Saturday
12,2153080.837986222
574,10243879.063273717
2,6, 1, 6, 0, 6, 0.00,60.00,Saturday
12,18091934.13880431
574,11542115.603136564
2,6, 1, 6, 0, 7, 0.00,60.00,Saturday
12,6212438.646221508
574,11017833.121485718
2,6, 1, 6, 0, 8, 0.00,60.00,Saturday
12,4378979.515560264
574,10915423.273533399
2,6, 1, 6, 0, 9, 0.00,60.00,Saturday
12,4085779.6608796587
574,8409233.857385112
2,6, 1, 6, 0,10, 0.00,60.00,Saturday
12,6499619.360891342
574,6710835.283335168
2,6, 1, 6, 0,11, 0.00,60.00,Saturday
12,3872212.208264357
574,4718684.654375493
2,6, 1, 6, 0,12, 0.00,60.00,Saturday
12,6055555.236332013
574,2977044.4196311428
2,6, 1, 6, 0,13, 0.00,60.00,Saturday
12,11360013.950278998
574,2691417.3617448967
2,6, 1, 6, 0,14, 0.00,60.00,Saturday
12,6358702.971254336
574,2556011.74259419
2,6, 1, 6, 0,15, 0.00,60.00,Saturday
12,3848198.5727480656
574,1725861.3726098766
2,6, 1, 6, 0,16, 0.00,60.00,Saturday
12,5181882.92972962
574,1704069.1592612726
2,6, 1, 6, 0,17, 0.00,60.00,Saturday
12,4865397.511868777
574,4635137.319848219
2,6, 1, 6, 0,18, 0.00,60.00,Saturday
12,8910219.28139956
574,5364219.053253465
2,6, 1, 6, 0,19, 0.00,60.00,Saturday
12,12114890.64280907
574,6416445.151466508
2,6, 1, 6, 0,20, 0.00,60.00,Saturday
12,8269431.561925968
574,7594528.154138184
2,6, 1, 6, 0,21, 0.00,60.00,Saturday
12,10693559.438348534
574,8322121.578500728
2,6, 1, 6, 0,22, 0.00,60.00,Saturday
12,25014910.75189492
574,10690970.563310955
2,6, 1, 6, 0,23, 0.00,60.00,Saturday
12,7647155.129144129
574,11861336.2000464
2,6, 1, 6, 0,24, 0.00,60.00,Saturday
12,4879420.926638785
574,14008701.144622785
2,7, 1, 7, 0, 1, 0.00,60.00,Sunday
12,2854825.7998372639
574,15566537.953909623
2,7, 1, 7, 0, 2, 0.00,60.00,Sunday
12,2551173.906989655
574,15828101.114651487
2,7, 1, 7, 0, 3, 0.00,60.00,Sunday
12,2494982.0706561214
574,18038402.416050849
2,7, 1, 7, 0, 4, 0.00,60.00,Sunday
12,5299303.125785051
574,18606915.532619586
2,7, 1, 7, 0, 5, 0.00,60.00,Sunday
12,15519088.875960466
574,18606915.532619586
2,7, 1, 7, 0, 6, 0.00,60.00,Sunday
12,3060388.579791767
574,18606915.532619586
2,7, 1, 7, 0, 7, 0.00,60.00,Sunday
12,9133888.609689229
574,18606915.532619586
2,7, 1, 7, 0, 8, 0.00,60.00,Sunday
12,5676764.048219316
574,15491314.4862567
2,7, 1, 7, 0, 9, 0.00,60.00,Sunday
12,4251492.49858526
574,14537891.9786242
2,7, 1, 7, 0,10, 0.00,60.00,Sunday
12,8250887.871523156
574,13397292.988263879
2,7, 1, 7, 0,11, 0.00,60.00,Sunday
12,4313900.230730161
574,11845707.327130659
2,7, 1, 7, 0,12, 0.00,60.00,Sunday
12,4073426.451092547
574,10369492.210697888
2,7, 1, 7, 0,13, 0.00,60.00,Sunday
12,5358241.249504212
574,9573952.59054828
2,7, 1, 7, 0,14, 0.00,60.00,Sunday
12,3974945.269398805
574,9303287.720574344
2,7, 1, 7, 0,15, 0.00,60.00,Sunday
12,4046108.755699906
574,9045293.390173579
2,7, 1, 7, 0,16, 0.00,60.00,Sunday
12,4182327.415400802
574,8999124.539607263
2,7, 1, 7, 0,17, 0.00,60.00,Sunday
12,11449164.249148392
574,8838394.979305869
2,7, 1, 7, 0,18, 0.00,60.00,Sunday
12,9569354.965894267
574,7601005.102820637
2,7, 1, 7, 0,19, 0.00,60.00,Sunday
12,7110533.590420951
574,6705955.813129417
2,7, 1, 7, 0,20, 0.00,60.00,Sunday
12,7016729.404650623
574,6858225.8315689959
2,7, 1, 7, 0,21, 0.00,60.00,Sunday
12,6561888.861009894
574,7979741.495450931
2,7, 1, 7, 0,22, 0.00,60.00,Sunday
12,7085796.587274961
574,9270697.342849445
2,7, 1, 7, 0,23, 0.00,60.00,Sunday
12,6223874.6663060509
574,9755377.643038257
2,7, 1, 7, 0,24, 0.00,60.00,Sunday
12,3618558.467241803
574,9561072.84355035
2,8, 1, 8, 0, 1, 0.00,60.00,Monday
12,2711345.7184591775
574,10260127.309152822
2,8, 1, 8, 0, 2, 0.00,60.00,Monday
12,3556327.2011336695
574,11030905.02899219
2,8, 1, 8, 0, 3, 0.00,60.00,Monday
12,2338519.2071633676
574,12251841.686695962
2,8, 1, 8, 0, 4, 0.00,60.00,Monday
12,2351896.4201015599
574,15070621.7133623
2,8, 1, 8, 0, 5, 0.00,60.00,Monday
12,2294129.338844068
574,15460361.094718766
2,8, 1, 8, 0, 6, 0.00,60.00,Monday
12,2713208.0276394479
574,14368632.626852416
2,8, 1, 8, 0, 7, 0.00,60.00,Monday
12,3795205.882929992
574,14846376.182864117
2,8, 1, 8, 0, 8, 0.00,60.00,Monday
12,5585436.348631318
574,12619357.643748219
2,8, 1, 8, 0, 9, 0.00,60.00,Monday
12,10499235.176443864
574,8202530.909763432
2,8, 1, 8, 0,10, 0.00,60.00,Monday
12,3817295.382261693
574,4851947.301452189
2,8, 1, 8, 0,11, 0.00,60.00,Monday
12,3837914.0124176
574,3450213.7294281229
2,8, 1, 8, 0,12, 0.00,60.00,Monday
12,4997513.297302969
574,2047444.3845690485
2,8, 1, 8, 0,13, 0.00,60.00,Monday
12,4743181.119556013
574,0.0
2,8, 1, 8, 0,14, 0.00,60.00,Monday
12,3530188.525911049
574,0.0
2,8, 1, 8, 0,15, 0.00,60.00,Monday
12,4991486.247999148
574,0.0
2,8, 1, 8, 0,16, 0.00,60.00,Monday
12,5453544.313818866
574,0.0
2,8, 1, 8, 0,17, 0.00,60.00,Monday
12,4740067.995483241
574,0.0
2,8, 1, 8, 0,18, 0.00,60.00,Monday
12,7466758.27421086
574,1230327.357259863
2,8, 1, 8, 0,19, 0.00,60.00,Monday
12,16766323.162305557
574,3646364.3781977028
2,8, 1, 8, 0,20, 0.00,60.00,Monday
12,6959522.248503312
574,4742498.96954952
2,8, 1, 8, 0,21, 0.00,60.00,Monday
12,6481036.787435602
574,4989540.348751499
2,8, 1, 8, 0,22, 0.00,60.00,Monday
12,6978067.167224555
574,6601201.238823033
2,8, 1, 8, 0,23, 0.00,60.00,Monday
12,5012808.048459535
574,7054400.545252514
2,8, 1, 8, 0,24, 0.00,60.00,Monday
12,3617720.1010132867
574,9530067.038169729
2,9, 1, 9, 0, 1, 0.00,60.00,Tuesday
12,2741889.7023394287
574,11389753.941914127
2,9, 1, 9, 0, 2, 0.00,60.00,Tuesday
12,2453462.9005310519
574,12214395.854647212
2,9, 1, 9, 0, 3, 0.00,60.00,Tuesday
12,2358877.65594393
574,13004770.513347812
2,9, 1, 9, 0, 4, 0.00,60.00,Tuesday
12,2313410.0695378358
574,13647257.728984341
2,9, 1, 9, 0, 5, 0.00,60.00,Tuesday
12,3391038.299969687
574,14058047.955187986
2,9, 1, 9, 0, 6, 0.00,60.00,Tuesday
12,2711451.732948382
574,14303678.517860504
2,9, 1, 9, 0, 7, 0.00,60.00,Tuesday
12,3775537.3415346567
574,14118962.618384563
2,9, 1, 9, 0, 8, 0.00,60.00,Tuesday
12,5598517.15088459
574,11733656.007606715
2,9, 1, 9, 0, 9, 0.00,60.00,Tuesday
12,4078212.2461885989
574,8129363.582122902
2,9, 1, 9, 0,10, 0.00,60.00,Tuesday
12,5127613.048103029
574,5844806.049332741
2,9, 1, 9, 0,11, 0.00,60.00,Tuesday
12,5083787.425285445
574,4023631.032941849
2,9, 1, 9, 0,12, 0.00,60.00,Tuesday
12,5006985.176169273
574,2924603.8450077965
2,9, 1, 9, 0,13, 0.00,60.00,Tuesday
12,3752183.72433701
574,2237157.14129818
2,9, 1, 9, 0,14, 0.00,60.00,Tuesday
12,3746530.775607492
574,1344067.404976163
2,9, 1, 9, 0,15, 0.00,60.00,Tuesday
12,3801532.992798267
574,0.0
2,9, 1, 9, 0,16, 0.00,60.00,Tuesday
12,5130128.061785936
574,0.0
2,9, 1, 9, 0,17, 0.00,60.00,Tuesday
12,4779827.943197174
574,1470466.1982190049
2,9, 1, 9, 0,18, 0.00,60.00,Tuesday
12,7440020.670346877
574,3538521.310401461
2,9, 1, 9, 0,19, 0.00,60.00,Tuesday
12,7045015.246027656
574,4282851.24853638
2,9, 1, 9, 0,20, 0.00,60.00,Tuesday
12,6956409.975085149
574,4627395.879023561
2,9, 1, 9, 0,21, 0.00,60.00,Tuesday
12,6518847.609190183
574,6387920.842534482
2,9, 1, 9, 0,22, 0.00,60.00,Tuesday
12,5817284.260774981
574,7596207.870329634
2,9, 1, 9, 0,23, 0.00,60.00,Tuesday
12,5068004.259457591
574,9095755.406339592
2,9, 1, 9, 0,24, 0.00,60.00,Tuesday
12,9552469.756807009
574,11713941.551543557
2,10, 1,10, 0, 1, 0.00,60.00,Wednesday
12,3336891.8095827216
574,12738900.566828544
2,10, 1,10, 0, 2, 0.00,60.00,Wednesday
12,2495904.689493308
574,13784046.210074408
2,10, 1,10, 0, 3, 0.00,60.00,Wednesday
12,2390958.5887020814
574,14191239.05620424
2,10, 1,10, 0, 4, 0.00,60.00,Wednesday
12,2366228.3700284755
574,15600668.887310448
2,10, 1,10, 0, 5, 0.00,60.00,Wednesday
12,2314884.5797434116
574,16227964.724330245
2,10, 1,10, 0, 6, 0.00,60.00,Wednesday
12,3908602.9912347404
574,16610043.251072297
2,10, 1,10, 0, 7, 0.00,60.00,Wednesday
12,3815382.222552261
574,15592569.956351806
2,10, 1,10, 0, 8, 0.00,60.00,Wednesday
12,4469348.809065794
574,14257605.522184765
2,10, 1,10, 0, 9, 0.00,60.00,Wednesday
12,4124538.384963872
574,9842671.196437754
2,10, 1,10, 0,10, 0.00,60.00,Wednesday
12,17351922.11020174
574,7239493.919433036
2,10, 1,10, 0,11, 0.00,60.00,Wednesday
12,13374710.565584515
574,4669011.157075706
2,10, 1,10, 0,12, 0.00,60.00,Wednesday
12,4640144.465711323
574,1819389.4329495594
2,10, 1,10, 0,13, 0.00,60.00,Wednesday
12,3691693.21386244
574,0.0
2,10, 1,10, 0,14, 0.00,60.00,Wednesday
12,3710188.525911049
574,0.0
2,10, 1,10, 0,15, 0.00,60.00,Wednesday
12,4937541.310246752
574,0.0
2,10, 1,10, 0,16, 0.00,60.00,Wednesday
12,3939000.012432055
574,0.0
2,10, 1,10, 0,17, 0.00,60.00,Wednesday
12,4740067.995483241
574,0.0
2,10, 1,10, 0,18, 0.00,60.00,Wednesday
12,6205251.324219913
574,1330606.8698852992
2,10, 1,10, 0,19, 0.00,60.00,Wednesday
12,8240389.165036056
574,3276297.3673876647
2,10, 1,10, 0,20, 0.00,60.00,Wednesday
12,17423503.397519769
574,3717184.7255380374
2,10, 1,10, 0,21, 0.00,60.00,Wednesday
12,6830219.138984095
574,4856180.729984589
2,10, 1,10, 0,22, 0.00,60.00,Wednesday
12,5802372.763745579
574,7044726.955305807
2,10, 1,10, 0,23, 0.00,60.00,Wednesday
12,5053872.127524243
574,8573098.222123076
2,10, 1,10, 0,24, 0.00,60.00,Wednesday
12,4857347.012445831
574,11862530.425297616
2,11, 1,11, 0, 1, 0.00,60.00,Thursday
12,2778916.895341607
574,12759153.019507843
2,11, 1,11, 0, 2, 0.00,60.00,Thursday
12,3684285.01666661
574,14156188.379537177
2,11, 1,11, 0, 3, 0.00,60.00,Thursday
12,2396053.5673712759
574,14379669.734423457
2,11, 1,11, 0, 4, 0.00,60.00,Thursday
12,2360860.9753418324
574,15402163.282725797
2,11, 1,11, 0, 5, 0.00,60.00,Thursday
12,2307668.8552323968
574,15961101.219743953
2,11, 1,11, 0, 6, 0.00,60.00,Thursday
12,3875707.0699572137
574,15391819.977392193
2,11, 1,11, 0, 7, 0.00,60.00,Thursday
12,3798761.8670288308
574,14977889.2939066
2,11, 1,11, 0, 8, 0.00,60.00,Thursday
12,5666133.311905247
574,14136421.934637264
2,11, 1,11, 0, 9, 0.00,60.00,Thursday
12,15675322.75818654
574,12702348.79282356
2,11, 1,11, 0,10, 0.00,60.00,Thursday
12,5313821.5492489919
574,7745858.830005403
2,11, 1,11, 0,11, 0.00,60.00,Thursday
12,4961629.862976485
574,4165268.2212706946
2,11, 1,11, 0,12, 0.00,60.00,Thursday
12,8954466.643060055
574,2162314.9541726305
2,11, 1,11, 0,13, 0.00,60.00,Thursday
12,3524021.973069991
574,455961.9597872817
2,11, 1,11, 0,14, 0.00,60.00,Thursday
12,3530188.525911049
574,0.0
2,11, 1,11, 0,15, 0.00,60.00,Thursday
12,4815906.2987092719
574,0.0
2,11, 1,11, 0,16, 0.00,60.00,Thursday
12,4946172.746576781
574,356480.9530551654
2,11, 1,11, 0,17, 0.00,60.00,Thursday
12,4776709.359270156
574,1355129.7223266625
2,11, 1,11, 0,18, 0.00,60.00,Thursday
12,6206543.115729798
574,1378381.9767365086
2,11, 1,11, 0,19, 0.00,60.00,Thursday
12,8105384.949457808
574,1353496.581878696
2,11, 1,11, 0,20, 0.00,60.00,Thursday
12,9593870.411242517
574,2516784.675221322
2,11, 1,11, 0,21, 0.00,60.00,Thursday
12,6434500.213170564
574,3268450.0714202939
2,11, 1,11, 0,22, 0.00,60.00,Thursday
12,5700771.972372174
574,3287163.426756749
2,11, 1,11, 0,23, 0.00,60.00,Thursday
12,6180784.446276775
574,4623525.168817611
2,11, 1,11, 0,24, 0.00,60.00,Thursday
12,3520094.640996314
574,5919525.5939657329
2,12, 1,12, 0, 1, 0.00,60.00,Friday
12,2632498.5773753847
574,7344075.793589763
2,12, 1,12, 0, 2, 0.00,60.00,Friday
12,3502989.1064003438
574,9061196.549175796
2,12, 1,12, 0, 3, 0.00,60.00,Friday
12,2280901.168625057
574,10120918.912655835
2,12, 1,12, 0, 4, 0.00,60.00,Friday
12,2269988.30147371
574,12041364.213615679
2,12, 1,12, 0, 5, 0.00,60.00,Friday
12,2235140.672413422
574,13278747.56020487
2,12, 1,12, 0, 6, 0.00,60.00,Friday
12,7248299.71295409
574,13854608.013230794
2,12, 1,12, 0, 7, 0.00,60.00,Friday
12,13457607.56725125
574,14788966.283376448
2,12, 1,12, 0, 8, 0.00,60.00,Friday
12,4450862.266374004
574,13573906.530782847
2,12, 1,12, 0, 9, 0.00,60.00,Friday
12,4188150.6819878139
574,12195283.258148155
2,12, 1,12, 0,10, 0.00,60.00,Friday
12,3982552.945607204
574,10963767.735623783
2,12, 1,12, 0,11, 0.00,60.00,Friday
12,21031462.61514917
574,10160463.73211857
2,12, 1,12, 0,12, 0.00,60.00,Friday
12,15974243.918865189
574,7902421.761652381
2,12, 1,12, 0,13, 0.00,60.00,Friday
12,5204347.290737964
574,7640159.083444298
2,12, 1,12, 0,14, 0.00,60.00,Friday
12,5087467.6363864629
574,7130621.314351056
2,12, 1,12, 0,15, 0.00,60.00,Friday
12,3986900.0437112499
574,6855541.777676016
2,12, 1,12, 0,16, 0.00,60.00,Friday
12,4116530.825115047
574,6565729.438854572
2,12, 1,12, 0,17, 0.00,60.00,Friday
12,6087749.461769085
574,7873773.960431507
2,12, 1,12, 0,18, 0.00,60.00,Friday
12,7670542.997139538
574,8070561.508990066
2,12, 1,12, 0,19, 0.00,60.00,Friday
12,8296892.196627516
574,7323163.792286985
2,12, 1,12, 0,20, 0.00,60.00,Friday
12,8687620.549933766
574,7147984.633640692
2,12, 1,12, 0,21, 0.00,60.00,Friday
12,7944745.022715688
574,8640355.968961144
2,12, 1,12, 0,22, 0.00,60.00,Friday
12,9053874.957709277
574,9620740.451201495
2,12, 1,12, 0,23, 0.00,60.00,Friday
12,5107082.492325371
574,10541009.332014779
2,12, 1,12, 0,24, 0.00,60.00,Friday
12,4801507.354669884
574,11339998.611961734
2,13, 1,13, 0, 1, 0.00,60.00,Saturday
12,2738228.6467130684
574,11254354.907008555
2,13, 1,13, 0, 2, 0.00,60.00,Saturday
12,5122010.372092778
574,10568536.340144081
2,13, 1,13, 0, 3, 0.00,60.00,Saturday
12,2308235.0630413044
574,11131824.864896136
2,13, 1,13, 0, 4, 0.00,60.00,Saturday
12,2240929.293439625
574,10966657.340876937
2,13, 1,13, 0, 5, 0.00,60.00,Saturday
12,2170658.4881556706
574,10893963.932707154
2,13, 1,13, 0, 6, 0.00,60.00,Saturday
12,18470802.696079546
574,12102437.28239818
2,13, 1,13, 0, 7, 0.00,60.00,Saturday
12,6474821.975509608
574,11229684.777299565
2,13, 1,13, 0, 8, 0.00,60.00,Saturday
12,4328891.103751442
574,9062973.239713693
2,13, 1,13, 0, 9, 0.00,60.00,Saturday
12,3983119.37332949
574,4612486.340811658
2,13, 1,13, 0,10, 0.00,60.00,Saturday
12,6375190.0753504
574,1919955.7139159358
2,13, 1,13, 0,11, 0.00,60.00,Saturday
12,3753646.277667209
574,333689.1192231643
2,13, 1,13, 0,12, 0.00,60.00,Saturday
12,5976266.471306516
574,0.0
2,13, 1,13, 0,13, 0.00,60.00,Saturday
12,11306610.603592242
574,0.0
2,13, 1,13, 0,14, 0.00,60.00,Saturday
12,6151086.794805274
574,0.0
2,13, 1,13, 0,15, 0.00,60.00,Saturday
12,3801532.992798267
574,0.0
2,13, 1,13, 0,16, 0.00,60.00,Saturday
12,5136302.757360037
574,0.0
2,13, 1,13, 0,17, 0.00,60.00,Saturday
12,4740067.995483241
574,0.0
2,13, 1,13, 0,18, 0.00,60.00,Saturday
12,8768829.188754324
574,0.0
2,13, 1,13, 0,19, 0.00,60.00,Saturday
12,11968771.527532272
574,0.0
2,13, 1,13, 0,20, 0.00,60.00,Saturday
12,8065266.756636333
574,0.0
2,13, 1,13, 0,21, 0.00,60.00,Saturday
12,10472483.751931657
574,0.0
2,13, 1,13, 0,22, 0.00,60.00,Saturday
12,24834510.603366678
574,254907.78777766499
2,13, 1,13, 0,23, 0.00,60.00,Saturday
12,7596850.260547042
574,3005449.431454346
2,13, 1,13, 0,24, 0.00,60.00,Saturday
12,4602422.377908854
574,3761605.588912021
2,14, 1,14, 0, 1, 0.00,60.00,Sunday
12,2546816.453386236
574,4175241.970563857
2,14, 1,14, 0, 2, 0.00,60.00,Sunday
12,2235493.4084446488
574,4153098.2729176937
2,14, 1,14, 0, 3, 0.00,60.00,Sunday
12,2143310.4247784416
574,5032317.200451919
2,14, 1,14, 0, 4, 0.00,60.00,Sunday
12,4962244.422460929
574,5821393.976983888
2,14, 1,14, 0, 5, 0.00,60.00,Sunday
12,15279492.349439882
574,7051878.394236485
2,14, 1,14, 0, 6, 0.00,60.00,Sunday
12,2832216.9649398105
574,6578166.443930074
2,14, 1,14, 0, 7, 0.00,60.00,Sunday
12,8854157.33738306
574,7041857.464486676
2,14, 1,14, 0, 8, 0.00,60.00,Sunday
12,5430186.683962138
574,6354633.310858783
2,14, 1,14, 0, 9, 0.00,60.00,Sunday
12,3971356.9245143549
574,4177468.580844217
2,14, 1,14, 0,10, 0.00,60.00,Sunday
12,8049075.876414949
574,2509280.038564874
2,14, 1,14, 0,11, 0.00,60.00,Sunday
12,3638853.9583088054
574,587921.692052865
2,14, 1,14, 0,12, 0.00,60.00,Sunday
12,3613045.6653140357
574,0.0
2,14, 1,14, 0,13, 0.00,60.00,Sunday
12,4920354.064960375
574,0.0
2,14, 1,14, 0,14, 0.00,60.00,Sunday
12,3543393.595660419
574,0.0
2,14, 1,14, 0,15, 0.00,60.00,Sunday
12,3621532.992798267
574,0.0
2,14, 1,14, 0,16, 0.00,60.00,Sunday
12,3759000.012432055
574,0.0
2,14, 1,14, 0,17, 0.00,60.00,Sunday
12,11159143.62715229
574,0.0
2,14, 1,14, 0,18, 0.00,60.00,Sunday
12,9299498.749519855
574,0.0
2,14, 1,14, 0,19, 0.00,60.00,Sunday
12,6929211.195642407
574,0.0
2,14, 1,14, 0,20, 0.00,60.00,Sunday
12,6862585.219146537
574,1157418.1729027746
2,14, 1,14, 0,21, 0.00,60.00,Sunday
12,6424992.007233506
574,2916802.3394679597
2,14, 1,14, 0,22, 0.00,60.00,Sunday
12,6952680.996638295
574,4304040.253381833
2,14, 1,14, 0,23, 0.00,60.00,Sunday
12,6103822.992853274
574,5312634.721572687
2,14, 1,14, 0,24, 0.00,60.00,Sunday
12,3561631.5693240717
574,7455710.941171539
2,15, 1,15, 0, 1, 0.00,60.00,Monday
12,3799754.7340123627
574,8543787.086635193
2,15, 1,15, 0, 2, 0.00,60.00,Monday
12,2388145.322639342
574,9798716.35903162
2,15, 1,15, 0, 3, 0.00,60.00,Monday
12,2292281.405712489
574,10541801.105086958
2,15, 1,15, 0, 4, 0.00,60.00,Monday
12,2257657.8754375276
574,11585340.608496787
2,15, 1,15, 0, 5, 0.00,60.00,Monday
12,2204246.6640852747
574,12136175.761547365
2,15, 1,15, 0, 6, 0.00,60.00,Monday
12,2649219.5840041928
574,12002109.307474126
2,15, 1,15, 0, 7, 0.00,60.00,Monday
12,3744567.0312525487
574,12973568.898406534
2,15, 1,15, 0, 8, 0.00,60.00,Monday
12,5547016.533534629
574,11185995.07481878
2,15, 1,15, 0, 9, 0.00,60.00,Monday
12,10452101.140046087
574,5704223.555594982
2,15, 1,15, 0,10, 0.00,60.00,Monday
12,3746975.3507704988
574,2251259.0382414825
2,15, 1,15, 0,11, 0.00,60.00,Monday
12,3570000.751763399
574,198864.42944104834
2,15, 1,15, 0,12, 0.00,60.00,Monday
12,4762344.514429321
574,0.0
2,15, 1,15, 0,13, 0.00,60.00,Monday
12,4744260.693679983
574,0.0
2,15, 1,15, 0,14, 0.00,60.00,Monday
12,3530188.525911049
574,0.0
2,15, 1,15, 0,15, 0.00,60.00,Monday
12,4811985.813230282
574,0.0
2,15, 1,15, 0,16, 0.00,60.00,Monday
12,5274572.256809631
574,0.0
2,15, 1,15, 0,17, 0.00,60.00,Monday
12,4740067.995483241
574,0.0
2,15, 1,15, 0,18, 0.00,60.00,Monday
12,7787229.646337749
574,0.0
2,15, 1,15, 0,19, 0.00,60.00,Monday
12,16097772.657075003
574,0.0
2,15, 1,15, 0,20, 0.00,60.00,Monday
12,6831289.779582195
574,0.0
2,15, 1,15, 0,21, 0.00,60.00,Monday
12,6346124.5646159299
574,0.0
2,15, 1,15, 0,22, 0.00,60.00,Monday
12,6814569.640724683
574,527186.489332976
2,15, 1,15, 0,23, 0.00,60.00,Monday
12,4917199.807573381
574,3518463.1364363806
2,15, 1,15, 0,24, 0.00,60.00,Monday
12,3479940.0027247655
574,4434462.316094971
2,16, 1,16, 0, 1, 0.00,60.00,Tuesday
12,2558889.8395283727
574,4621759.313790562
2,16, 1,16, 0, 2, 0.00,60.00,Tuesday
12,3409625.5664633645
574,5605772.049075042
2,16, 1,16, 0, 3, 0.00,60.00,Tuesday
12,2149040.874400845
574,5244249.885347993
2,16, 1,16, 0, 4, 0.00,60.00,Tuesday
12,2168959.1375440827
574,8304941.528613386
2,16, 1,16, 0, 5, 0.00,60.00,Tuesday
12,2144927.360332868
574,9942334.066950946
2,16, 1,16, 0, 6, 0.00,60.00,Tuesday
12,2605124.7237831645
574,10371322.417694288
2,16, 1,16, 0, 7, 0.00,60.00,Tuesday
12,3677439.4406586915
574,10490948.608099647
2,16, 1,16, 0, 8, 0.00,60.00,Tuesday
12,5547729.125475688
574,9818083.722762116
2,16, 1,16, 0, 9, 0.00,60.00,Tuesday
12,4101966.87273838
574,9007895.305657564
2,16, 1,16, 0,10, 0.00,60.00,Tuesday
12,6498695.579405927
574,8917362.784058182
2,16, 1,16, 0,11, 0.00,60.00,Tuesday
12,5199115.785142828
574,8282377.909358546
2,16, 1,16, 0,12, 0.00,60.00,Tuesday
12,3964628.306800473
574,6345744.625275766
2,16, 1,16, 0,13, 0.00,60.00,Tuesday
12,3856952.0219365728
574,6111866.468723163
2,16, 1,16, 0,14, 0.00,60.00,Tuesday
12,4997168.110507652
574,5627700.687038212
2,16, 1,16, 0,15, 0.00,60.00,Tuesday
12,3942824.2323524167
574,5225459.383489945