Program Version,EnergyPlus, Version 9.1.0-fafb9d5652, YMD=2019.09.26 13:40
1,5,Environment Title[],Latitude[deg],Longitude[deg],Time Zone[],Elevation[m]
2,8,Day of Simulation[],Month[],Day of Month[],DST Indicator[1=yes 0=no],Hour[],StartMinute[],EndMinute[],DayType
3,5,Cumulative Day of Simulation[],Month[],Day of Month[],DST Indicator[1=yes 0=no],DayType  ! When Daily Meters Requested
4,2,Cumulative Days of Simulation[],Month[]  ! When Monthly Meters Requested
5,1,Cumulative Days of Simulation[] ! When Run Period Meters Requested
6,1,Calendar Year of Simulation[] ! When Annual Meters Requested
12,1,Electricity:Facility [J] !Hourly
586,1,Gas:Facility [J] !Hourly
End of Data Dictionary
1,RUN PERIOD 1,  39.83,-104.65,  -7.00,1650.00
2,1, 1, 1, 0, 1, 0.00,60.00,Monday
12,2239964.636576143
586,0.0
2,1, 1, 1, 0, 2, 0.00,60.00,Monday
12,2001751.7600675864
586,0.0
2,1, 1, 1, 0, 3, 0.00,60.00,Monday
12,1933641.608016429
586,599272.2961996686
2,1, 1, 1, 0, 4, 0.00,60.00,Monday
12,1897865.0369357696
586,2121520.5119525815
2,1, 1, 1, 0, 5, 0.00,60.00,Monday
12,1840543.4721923527
586,3010212.504427443
2,1, 1, 1, 0, 6, 0.00,60.00,Monday
12,2147514.620606646
586,3266453.5627451187
2,1, 1, 1, 0, 7, 0.00,60.00,Monday
12,2912645.957761413
586,3309789.4847015317
2,1, 1, 1, 0, 8, 0.00,60.00,Monday
12,3470745.4646674494
586,3117651.88237334
2,1, 1, 1, 0, 9, 0.00,60.00,Monday
12,10580180.366941084
586,2844200.013941956
2,1, 1, 1, 0,10, 0.00,60.00,Monday
12,2595359.974418786
586,1458232.1171551138
2,1, 1, 1, 0,11, 0.00,60.00,Monday
12,3082428.4815538737
586,69857.56225883843
2,1, 1, 1, 0,12, 0.00,60.00,Monday
12,3161572.65134888
586,0.0
2,1, 1, 1, 0,13, 0.00,60.00,Monday
12,4273416.590604331
586,99319.10903403242
2,1, 1, 1, 0,14, 0.00,60.00,Monday
12,3020775.979865354
586,823000.2249094308
2,1, 1, 1, 0,15, 0.00,60.00,Monday
12,4342033.289046071
586,735808.0026549607
2,1, 1, 1, 0,16, 0.00,60.00,Monday
12,4640893.440250815
586,973948.2638660938
2,1, 1, 1, 0,17, 0.00,60.00,Monday
12,3804134.3931863994
586,1760684.0424913183
2,1, 1, 1, 0,18, 0.00,60.00,Monday
12,6257258.67277773
586,3021802.1616226008
2,1, 1, 1, 0,19, 0.00,60.00,Monday
12,13284433.890653067
586,4185774.0939269585
2,1, 1, 1, 0,20, 0.00,60.00,Monday
12,5760998.172760568
586,4311721.102962692
2,1, 1, 1, 0,21, 0.00,60.00,Monday
12,5131929.045112925
586,4175264.5611454567
2,1, 1, 1, 0,22, 0.00,60.00,Monday
12,4781879.607361737
586,4513829.954719524
2,1, 1, 1, 0,23, 0.00,60.00,Monday
12,5264203.996864181
586,5154183.0609444719
2,1, 1, 1, 0,24, 0.00,60.00,Monday
12,3039964.8793897808
586,6942222.251909883
2,2, 1, 2, 0, 1, 0.00,60.00,Tuesday
12,2385199.985114445
586,7620472.794528488
2,2, 1, 2, 0, 2, 0.00,60.00,Tuesday
12,2145815.951564326
586,7559022.393760573
2,2, 1, 2, 0, 3, 0.00,60.00,Tuesday
12,2066856.1671694373
586,7589016.418945956
2,2, 1, 2, 0, 4, 0.00,60.00,Tuesday
12,2015081.2259971949
586,8271833.013769794
2,2, 1, 2, 0, 5, 0.00,60.00,Tuesday
12,1923842.90178154
586,7380918.69526043
2,2, 1, 2, 0, 6, 0.00,60.00,Tuesday
12,2226770.6646250106
586,7425004.034943826
2,2, 1, 2, 0, 7, 0.00,60.00,Tuesday
12,2978195.263324986
586,6749149.838601275
2,2, 1, 2, 0, 8, 0.00,60.00,Tuesday
12,4698659.291342321
586,5880208.088203943
2,2, 1, 2, 0, 9, 0.00,60.00,Tuesday
12,3185070.9102471738
586,5606395.930994423
2,2, 1, 2, 0,10, 0.00,60.00,Tuesday
12,4303282.24782877
586,4097412.765035091
2,2, 1, 2, 0,11, 0.00,60.00,Tuesday
12,4240922.939376506
586,2506521.3316630867
2,2, 1, 2, 0,12, 0.00,60.00,Tuesday
12,3103674.7875488016
586,1348791.7350590369
2,2, 1, 2, 0,13, 0.00,60.00,Tuesday
12,4246342.410032557
586,1002047.5497041916
2,2, 1, 2, 0,14, 0.00,60.00,Tuesday
12,3027695.8162528278
586,1023978.8736465974
2,2, 1, 2, 0,15, 0.00,60.00,Tuesday
12,2991054.9942872484
586,683600.5765374163
2,2, 1, 2, 0,16, 0.00,60.00,Tuesday
12,4429646.365625866
586,1247739.7958734108
2,2, 1, 2, 0,17, 0.00,60.00,Tuesday
12,3803888.9563068819
586,1584257.1778662259
2,2, 1, 2, 0,18, 0.00,60.00,Tuesday
12,5013792.007954679
586,1886187.6297431696
2,2, 1, 2, 0,19, 0.00,60.00,Tuesday
12,5505180.479452063
586,2722204.962867247
2,2, 1, 2, 0,20, 0.00,60.00,Tuesday
12,6535879.253363052
586,3263958.680653982
2,2, 1, 2, 0,21, 0.00,60.00,Tuesday
12,5113091.031656828
586,4095002.362652292
2,2, 1, 2, 0,22, 0.00,60.00,Tuesday
12,4771180.3592092529
586,3952442.315356984
2,2, 1, 2, 0,23, 0.00,60.00,Tuesday
12,4097242.800548279
586,3748681.624144614
2,2, 1, 2, 0,24, 0.00,60.00,Tuesday
12,7514308.623512652
586,4701781.877811062
2,3, 1, 3, 0, 1, 0.00,60.00,Wednesday
12,2032505.3461087244
586,5360187.299560625
2,3, 1, 3, 0, 2, 0.00,60.00,Wednesday
12,2116596.12741369
586,6025863.440090941
2,3, 1, 3, 0, 3, 0.00,60.00,Wednesday
12,2045515.138359862
586,6469256.449438747
2,3, 1, 3, 0, 4, 0.00,60.00,Wednesday
12,3138812.5051887736
586,7061320.446060257
2,3, 1, 3, 0, 5, 0.00,60.00,Wednesday
12,1845846.8024548796
586,7486890.272029159
2,3, 1, 3, 0, 6, 0.00,60.00,Wednesday
12,2231632.645609605
586,7680111.308713647
2,3, 1, 3, 0, 7, 0.00,60.00,Wednesday
12,2984054.12455828
586,7056563.240948428
2,3, 1, 3, 0, 8, 0.00,60.00,Wednesday
12,3545019.9154808816
586,7014819.0489673479
2,3, 1, 3, 0, 9, 0.00,60.00,Wednesday
12,3262567.2777052635
586,5370006.603121717
2,3, 1, 3, 0,10, 0.00,60.00,Wednesday
12,14623589.113089256
586,5049749.613739484
2,3, 1, 3, 0,11, 0.00,60.00,Wednesday
12,11727132.918656547
586,3728838.99749703
2,3, 1, 3, 0,12, 0.00,60.00,Wednesday
12,2991299.7277479788
586,3412920.229066716
2,3, 1, 3, 0,13, 0.00,60.00,Wednesday
12,3116221.951775933
586,3844315.381060566
2,3, 1, 3, 0,14, 0.00,60.00,Wednesday
12,3180953.0677534348
586,4836769.640072793
2,3, 1, 3, 0,15, 0.00,60.00,Wednesday
12,3240115.553316875
586,4307195.772588515
2,3, 1, 3, 0,16, 0.00,60.00,Wednesday
12,3336075.082282808
586,5282828.2658763709
2,3, 1, 3, 0,17, 0.00,60.00,Wednesday
12,3969001.5285400005
586,5962607.332741057
2,3, 1, 3, 0,18, 0.00,60.00,Wednesday
12,6248789.808880778
586,6584579.499798714
2,3, 1, 3, 0,19, 0.00,60.00,Wednesday
12,6686610.198018363
586,6350370.383059403
2,3, 1, 3, 0,20, 0.00,60.00,Wednesday
12,14590103.79866267
586,6455282.010321191
2,3, 1, 3, 0,21, 0.00,60.00,Wednesday
12,5436085.177325181
586,7774793.483066247
2,3, 1, 3, 0,22, 0.00,60.00,Wednesday
12,4822772.435049035
586,8733945.745280346
2,3, 1, 3, 0,23, 0.00,60.00,Wednesday
12,4215941.947106348
586,9976804.640911164
2,3, 1, 3, 0,24, 0.00,60.00,Wednesday
12,4359084.372215385
586,11111164.525857736
2,4, 1, 4, 0, 1, 0.00,60.00,Thursday
12,2390839.890781082
586,12163538.672209027
2,4, 1, 4, 0, 2, 0.00,60.00,Thursday
12,2267229.065228572
586,13929546.779794446
2,4, 1, 4, 0, 3, 0.00,60.00,Thursday
12,2199274.2654173395
586,14536970.380272508
2,4, 1, 4, 0, 4, 0.00,60.00,Thursday
12,2131681.1057618835
586,14389807.876878065
2,4, 1, 4, 0, 5, 0.00,60.00,Thursday
12,3220172.5510164864
586,14397969.626484547
2,4, 1, 4, 0, 6, 0.00,60.00,Thursday
12,2272376.7256558027
586,14074175.703332445
2,4, 1, 4, 0, 7, 0.00,60.00,Thursday
12,3101311.497470009
586,13209036.652034432
2,4, 1, 4, 0, 8, 0.00,60.00,Thursday
12,4811650.249209882
586,11726925.07105222
2,4, 1, 4, 0, 9, 0.00,60.00,Thursday
12,12745414.979477004
586,10953841.28485246
2,4, 1, 4, 0,10, 0.00,60.00,Thursday
12,4975139.26427875
586,8705707.616113129
2,4, 1, 4, 0,11, 0.00,60.00,Thursday
12,3044616.4035112776
586,7161515.158088101
2,4, 1, 4, 0,12, 0.00,60.00,Thursday
12,8459087.252098497
586,6769197.786852363
2,4, 1, 4, 0,13, 0.00,60.00,Thursday
12,3429181.7927309579
586,5573613.513483925
2,4, 1, 4, 0,14, 0.00,60.00,Thursday
12,3140381.5356321877
586,4946229.569942972
2,4, 1, 4, 0,15, 0.00,60.00,Thursday
12,3059731.3108415717
586,4287034.638546259
2,4, 1, 4, 0,16, 0.00,60.00,Thursday
12,4309867.346388606
586,4907310.0278968359
2,4, 1, 4, 0,17, 0.00,60.00,Thursday
12,3858006.250919037
586,4388910.400887775
2,4, 1, 4, 0,18, 0.00,60.00,Thursday
12,5310388.4033732409
586,3913693.9055728774
2,4, 1, 4, 0,19, 0.00,60.00,Thursday
12,6387477.622617706
586,3683775.1017408056
2,4, 1, 4, 0,20, 0.00,60.00,Thursday
12,7439456.503208987
586,3313371.911534199
2,4, 1, 4, 0,21, 0.00,60.00,Thursday
12,5436847.938811385
586,3576162.396659864
2,4, 1, 4, 0,22, 0.00,60.00,Thursday
12,4737260.698816017
586,3640436.224245419
2,4, 1, 4, 0,23, 0.00,60.00,Thursday
12,5304141.1641155
586,4096313.055880866
2,4, 1, 4, 0,24, 0.00,60.00,Thursday
12,2796220.4421625698
586,3817582.7045333676
2,5, 1, 5, 0, 1, 0.00,60.00,Friday
12,2333730.778231166
586,4919892.703266827
2,5, 1, 5, 0, 2, 0.00,60.00,Friday
12,1899949.7015021186
586,4103032.0186330538
2,5, 1, 5, 0, 3, 0.00,60.00,Friday
12,1818859.4408107154
586,4021240.333105634
2,5, 1, 5, 0, 4, 0.00,60.00,Friday
12,1936868.4966354378
586,4168025.0752368059
2,5, 1, 5, 0, 5, 0.00,60.00,Friday
12,1860038.961302533
586,4033137.335574705
2,5, 1, 5, 0, 6, 0.00,60.00,Friday
12,7199982.015813836
586,3916115.431115642
2,5, 1, 5, 0, 7, 0.00,60.00,Friday
12,10535919.771624636
586,5260357.796539542
2,5, 1, 5, 0, 8, 0.00,60.00,Friday
12,3879210.7039579118
586,3185580.920139986
2,5, 1, 5, 0, 9, 0.00,60.00,Friday
12,3135663.882029319
586,2872294.3108024934
2,5, 1, 5, 0,10, 0.00,60.00,Friday
12,2841660.3858755638
586,1653583.2071459268
2,5, 1, 5, 0,11, 0.00,60.00,Friday
12,23005411.648234197
586,2313125.2438754669
2,5, 1, 5, 0,12, 0.00,60.00,Friday
12,8750557.29771823
586,404440.09978589756
2,5, 1, 5, 0,13, 0.00,60.00,Friday
12,3644792.4951250285
586,23135.939501923054
2,5, 1, 5, 0,14, 0.00,60.00,Friday
12,3988347.364407938
586,43444.67213440467
2,5, 1, 5, 0,15, 0.00,60.00,Friday
12,2907354.8552512645
586,559850.3775510602
2,5, 1, 5, 0,16, 0.00,60.00,Friday
12,3256336.9690654117
586,1098983.7089160979
2,5, 1, 5, 0,17, 0.00,60.00,Friday
12,3895521.3698562078
586,2107116.532305489
2,5, 1, 5, 0,18, 0.00,60.00,Friday
12,6804447.009539638
586,2221232.118529463
2,5, 1, 5, 0,19, 0.00,60.00,Friday
12,6020301.474349595
586,2631675.1899417915
2,5, 1, 5, 0,20, 0.00,60.00,Friday
12,6956425.356465077
586,2968740.1348483955
2,5, 1, 5, 0,21, 0.00,60.00,Friday
12,6433038.686413403
586,3813272.9709766579
2,5, 1, 5, 0,22, 0.00,60.00,Friday
12,7751967.123867229
586,4237895.287568515
2,5, 1, 5, 0,23, 0.00,60.00,Friday
12,3937431.638605591
586,4598406.021924806
2,5, 1, 5, 0,24, 0.00,60.00,Friday
12,4221143.713412438
586,5447791.269099567
2,6, 1, 6, 0, 1, 0.00,60.00,Saturday
12,2276825.811024158
586,6071393.318278149
2,6, 1, 6, 0, 2, 0.00,60.00,Saturday
12,4397097.623656105
586,6209983.554085567
2,6, 1, 6, 0, 3, 0.00,60.00,Saturday
12,2139008.4088948688
586,6348809.716983135
2,6, 1, 6, 0, 4, 0.00,60.00,Saturday
12,1970523.0842717943
586,6866183.9553486169
2,6, 1, 6, 0, 5, 0.00,60.00,Saturday
12,1919121.307307401
586,7133177.476617078
2,6, 1, 6, 0, 6, 0.00,60.00,Saturday
12,18170148.527547424
586,7970882.032498338
2,6, 1, 6, 0, 7, 0.00,60.00,Saturday
12,2226337.5982992167
586,7529003.5937717589
2,6, 1, 6, 0, 8, 0.00,60.00,Saturday
12,3530770.8778560964
586,7530101.923557517
2,6, 1, 6, 0, 9, 0.00,60.00,Saturday
12,3291530.535312053
586,6889703.556066019
2,6, 1, 6, 0,10, 0.00,60.00,Saturday
12,5626303.27417925
586,6288357.905737646
2,6, 1, 6, 0,11, 0.00,60.00,Saturday
12,3008501.565041825
586,5403075.557525337
2,6, 1, 6, 0,12, 0.00,60.00,Saturday
12,5374503.527094541
586,4444126.185904893
2,6, 1, 6, 0,13, 0.00,60.00,Saturday
12,10089144.506522634
586,4758607.461567507
2,6, 1, 6, 0,14, 0.00,60.00,Saturday
12,5382064.24773488
586,5080009.570525234
2,6, 1, 6, 0,15, 0.00,60.00,Saturday
12,3082254.317085093
586,5206286.907297862
2,6, 1, 6, 0,16, 0.00,60.00,Saturday
12,4513683.568526605
586,5415937.370126876
2,6, 1, 6, 0,17, 0.00,60.00,Saturday
12,3902254.3681550596
586,6762303.362051115
2,6, 1, 6, 0,18, 0.00,60.00,Saturday
12,6343906.711176175
586,6308776.4449779
2,6, 1, 6, 0,19, 0.00,60.00,Saturday
12,10638179.39335461
586,6667994.546042281
2,6, 1, 6, 0,20, 0.00,60.00,Saturday
12,6956527.706074582
586,7451234.565485952
2,6, 1, 6, 0,21, 0.00,60.00,Saturday
12,7962012.610367351
586,7479807.802843343
2,6, 1, 6, 0,22, 0.00,60.00,Saturday
12,24966139.683975258
586,8769780.829773296
2,6, 1, 6, 0,23, 0.00,60.00,Saturday
12,3287381.7035838176
586,9316294.452527937
2,6, 1, 6, 0,24, 0.00,60.00,Saturday
12,4301760.032118909
586,10461862.014705573
2,7, 1, 7, 0, 1, 0.00,60.00,Sunday
12,2376202.5128480989
586,11301210.301117253
2,7, 1, 7, 0, 2, 0.00,60.00,Sunday
12,2215157.267482481
586,11197348.85360138
2,7, 1, 7, 0, 3, 0.00,60.00,Sunday
12,2161483.2001905266
586,12554079.938409917
2,7, 1, 7, 0, 4, 0.00,60.00,Sunday
12,4776138.603809009
586,13506189.847672565
2,7, 1, 7, 0, 5, 0.00,60.00,Sunday
12,12914651.922140185
586,15052224.745375133
2,7, 1, 7, 0, 6, 0.00,60.00,Sunday
12,2412359.0870650589
586,14559699.579455635
2,7, 1, 7, 0, 7, 0.00,60.00,Sunday
12,7644492.113936725
586,14534073.536736558
2,7, 1, 7, 0, 8, 0.00,60.00,Sunday
12,4449072.666264901
586,10399047.82873405
2,7, 1, 7, 0, 9, 0.00,60.00,Sunday
12,3260144.781626495
586,9485132.18015962
2,7, 1, 7, 0,10, 0.00,60.00,Sunday
12,6135547.729959937
586,8782545.482345442
2,7, 1, 7, 0,11, 0.00,60.00,Sunday
12,3983646.615387364
586,7819949.120996444
2,7, 1, 7, 0,12, 0.00,60.00,Sunday
12,3226228.6497012574
586,6911775.278726778
2,7, 1, 7, 0,13, 0.00,60.00,Sunday
12,4564687.157834196
586,6474832.126918883
2,7, 1, 7, 0,14, 0.00,60.00,Sunday
12,3139139.7573885389
586,6391525.618930551
2,7, 1, 7, 0,15, 0.00,60.00,Sunday
12,3278174.3061271968
586,6304131.73414096
2,7, 1, 7, 0,16, 0.00,60.00,Sunday
12,3355309.0367303977
586,6292030.419995219
2,7, 1, 7, 0,17, 0.00,60.00,Sunday
12,9119755.632555392
586,6234805.04137824
2,7, 1, 7, 0,18, 0.00,60.00,Sunday
12,8169179.108675463
586,5374134.286068122
2,7, 1, 7, 0,19, 0.00,60.00,Sunday
12,5301974.980117662
586,4682845.433371113
2,7, 1, 7, 0,20, 0.00,60.00,Sunday
12,5428995.884539399
586,4816392.460212768
2,7, 1, 7, 0,21, 0.00,60.00,Sunday
12,5220845.597507638
586,5588275.128899016
2,7, 1, 7, 0,22, 0.00,60.00,Sunday
12,6010942.141924558
586,6374535.622383729
2,7, 1, 7, 0,23, 0.00,60.00,Sunday
12,4070647.574420437
586,6722974.9187953569
2,7, 1, 7, 0,24, 0.00,60.00,Sunday
12,4282935.493531402
586,6432776.73050366
2,8, 1, 8, 0, 1, 0.00,60.00,Monday
12,2287777.621090643
586,6803525.635140484
2,8, 1, 8, 0, 2, 0.00,60.00,Monday
12,2140905.517181751
586,7301372.778853897
2,8, 1, 8, 0, 3, 0.00,60.00,Monday
12,2077980.674391785
586,8172717.325740552
2,8, 1, 8, 0, 4, 0.00,60.00,Monday
12,2060209.2597581295
586,10639692.884020813
2,8, 1, 8, 0, 5, 0.00,60.00,Monday
12,1991450.8259803998
586,10928294.401224213
2,8, 1, 8, 0, 6, 0.00,60.00,Monday
12,2272442.2483610778
586,9821383.875296133
2,8, 1, 8, 0, 7, 0.00,60.00,Monday
12,3042252.2223596649
586,10110207.036706567
2,8, 1, 8, 0, 8, 0.00,60.00,Monday
12,4725999.079181424
586,8698586.28551661
2,8, 1, 8, 0, 9, 0.00,60.00,Monday
12,9074086.215293013
586,7036809.361841408
2,8, 1, 8, 0,10, 0.00,60.00,Monday
12,2772584.6214738979
586,5244342.952300531
2,8, 1, 8, 0,11, 0.00,60.00,Monday
12,3169504.8041591586
586,4638736.654983038
2,8, 1, 8, 0,12, 0.00,60.00,Monday
12,4376733.963742514
586,3910649.298398773
2,8, 1, 8, 0,13, 0.00,60.00,Monday
12,4066504.0829808518
586,2840767.347693165
2,8, 1, 8, 0,14, 0.00,60.00,Monday
12,2861717.775553752
586,1923366.674948528
2,8, 1, 8, 0,15, 0.00,60.00,Monday
12,3198849.246334495
586,2141960.016591024
2,8, 1, 8, 0,16, 0.00,60.00,Monday
12,5839154.1521728229
586,2026665.5925176843
2,8, 1, 8, 0,17, 0.00,60.00,Monday
12,3867724.105455695
586,3213799.317729293
2,8, 1, 8, 0,18, 0.00,60.00,Monday
12,6279222.107089838
586,4572785.244207669
2,8, 1, 8, 0,19, 0.00,60.00,Monday
12,12949324.002730944
586,5635357.762655745
2,8, 1, 8, 0,20, 0.00,60.00,Monday
12,4936501.959575636
586,6337048.998079288
2,8, 1, 8, 0,21, 0.00,60.00,Monday
12,5227864.703175622
586,5956566.349480776
2,8, 1, 8, 0,22, 0.00,60.00,Monday
12,5995785.216150784
586,6876094.519127991
2,8, 1, 8, 0,23, 0.00,60.00,Monday
12,4071861.207322349
586,6696169.646975258
2,8, 1, 8, 0,24, 0.00,60.00,Monday
12,3141333.2751080987
586,8086854.2979424
2,9, 1, 9, 0, 1, 0.00,60.00,Tuesday
12,2413488.476927459
586,9104764.906806257
2,9, 1, 9, 0, 2, 0.00,60.00,Tuesday
12,3310263.1300945475
586,9358828.651868834
2,9, 1, 9, 0, 3, 0.00,60.00,Tuesday
12,2026514.2191578577
586,9609715.611997297
2,9, 1, 9, 0, 4, 0.00,60.00,Tuesday
12,2044698.7776014265
586,9825860.655883844
2,9, 1, 9, 0, 5, 0.00,60.00,Tuesday
12,1970826.9958433496
586,9846165.717951764
2,9, 1, 9, 0, 6, 0.00,60.00,Tuesday
12,2274495.970883148
586,9929142.329174318
2,9, 1, 9, 0, 7, 0.00,60.00,Tuesday
12,3034511.33653389
586,9704044.14017654
2,9, 1, 9, 0, 8, 0.00,60.00,Tuesday
12,4743801.432610414
586,8225847.626083458
2,9, 1, 9, 0, 9, 0.00,60.00,Tuesday
12,3210137.4815692387
586,6923236.476266573
2,9, 1, 9, 0,10, 0.00,60.00,Tuesday
12,4340405.39748694
586,6004915.961636059
2,9, 1, 9, 0,11, 0.00,60.00,Tuesday
12,4294290.814087854
586,5281633.915427601
2,9, 1, 9, 0,12, 0.00,60.00,Tuesday
12,3168507.168678058
586,4752482.209136963
2,9, 1, 9, 0,13, 0.00,60.00,Tuesday
12,4316410.107116842
586,4664174.951797568
2,9, 1, 9, 0,14, 0.00,60.00,Tuesday
12,3091439.418750817
586,4369592.911183693
2,9, 1, 9, 0,15, 0.00,60.00,Tuesday
12,3230556.8715288855
586,3805653.446632502
2,9, 1, 9, 0,16, 0.00,60.00,Tuesday
12,3879090.7463564944
586,3810972.508723783
2,9, 1, 9, 0,17, 0.00,60.00,Tuesday
12,4479194.934438714
586,4464958.392326715
2,9, 1, 9, 0,18, 0.00,60.00,Tuesday
12,5033292.529549748
586,5027548.842311925
2,9, 1, 9, 0,19, 0.00,60.00,Tuesday
12,5556136.749919909
586,5395871.372036546
2,9, 1, 9, 0,20, 0.00,60.00,Tuesday
12,5440814.364711819
586,5436506.003733806
2,9, 1, 9, 0,21, 0.00,60.00,Tuesday
12,5239262.674169574
586,6554615.851522849
2,9, 1, 9, 0,22, 0.00,60.00,Tuesday
12,4830639.367856567
586,7072245.877965524
2,9, 1, 9, 0,23, 0.00,60.00,Tuesday
12,5304379.2579721449
586,7788811.748149266
2,9, 1, 9, 0,24, 0.00,60.00,Tuesday
12,7537998.842685351
586,9374844.773980359
2,10, 1,10, 0, 1, 0.00,60.00,Wednesday
12,2116734.7251020728
586,9829042.582018583
2,10, 1,10, 0, 2, 0.00,60.00,Wednesday
12,2197269.08271258
586,10258758.994077055
2,10, 1,10, 0, 3, 0.00,60.00,Wednesday
12,2117358.838908027
586,10238882.583817175
2,10, 1,10, 0, 4, 0.00,60.00,Wednesday
12,2069463.3660535212
586,11125254.188286283
2,10, 1,10, 0, 5, 0.00,60.00,Wednesday
12,2001434.4209466712
586,11452131.845742749
2,10, 1,10, 0, 6, 0.00,60.00,Wednesday
12,3436376.959589377
586,11594194.959972006
2,10, 1,10, 0, 7, 0.00,60.00,Wednesday
12,2975910.93154394
586,10766732.760371514
2,10, 1,10, 0, 8, 0.00,60.00,Wednesday
12,3609535.4331504318
586,10399936.736732385
2,10, 1,10, 0, 9, 0.00,60.00,Wednesday
12,3326444.3456663375
586,8721624.94872879
2,10, 1,10, 0,10, 0.00,60.00,Wednesday
12,14899775.038250464
586,7558996.649246025
2,10, 1,10, 0,11, 0.00,60.00,Wednesday
12,11351711.363697967
586,6074951.014720541
2,10, 1,10, 0,12, 0.00,60.00,Wednesday
12,3317286.07832918
586,4076202.3269245007
2,10, 1,10, 0,13, 0.00,60.00,Wednesday
12,3076648.6878853517
586,2811813.9141725755
2,10, 1,10, 0,14, 0.00,60.00,Wednesday
12,3136927.2827664518
586,2526744.5660971708
2,10, 1,10, 0,15, 0.00,60.00,Wednesday
12,3199558.2071044759
586,2179159.06155082
2,10, 1,10, 0,16, 0.00,60.00,Wednesday
12,3281895.5365846536
586,2440037.181143876
2,10, 1,10, 0,17, 0.00,60.00,Wednesday
12,3924191.4612086245
586,3611431.104250895
2,10, 1,10, 0,18, 0.00,60.00,Wednesday
12,6214073.252244946
586,4752432.306551252
2,10, 1,10, 0,19, 0.00,60.00,Wednesday
12,6670419.018559553
586,5457038.700472455
2,10, 1,10, 0,20, 0.00,60.00,Wednesday
12,14752550.110054909
586,5552584.144818514
2,10, 1,10, 0,21, 0.00,60.00,Wednesday
12,5279045.820338887
586,5936031.756662803
2,10, 1,10, 0,22, 0.00,60.00,Wednesday
12,4805094.458064863
586,7405668.672444094
2,10, 1,10, 0,23, 0.00,60.00,Wednesday
12,4180374.240813215
586,8110573.445141904
2,10, 1,10, 0,24, 0.00,60.00,Wednesday
12,4344227.057170147
586,10310781.652171979
2,11, 1,11, 0, 1, 0.00,60.00,Thursday
12,2358927.4530854427
586,10490551.593876236
2,11, 1,11, 0, 2, 0.00,60.00,Thursday
12,2212943.403317564
586,11081187.79632901
2,11, 1,11, 0, 3, 0.00,60.00,Thursday
12,2127997.384860058
586,10797085.18956513
2,11, 1,11, 0, 4, 0.00,60.00,Thursday
12,2073331.0615612453
586,11328191.48069315
2,11, 1,11, 0, 5, 0.00,60.00,Thursday
12,3166995.7268874396
586,11585242.880285414
2,11, 1,11, 0, 6, 0.00,60.00,Thursday
12,2213081.6682977455
586,10964547.8960738
2,11, 1,11, 0, 7, 0.00,60.00,Thursday
12,3049972.612353163
586,10515294.52057822
2,11, 1,11, 0, 8, 0.00,60.00,Thursday
12,4782355.367325928
586,10157878.124879985
2,11, 1,11, 0, 9, 0.00,60.00,Thursday
12,12922595.83545624
586,10179685.940264332
2,11, 1,11, 0,10, 0.00,60.00,Thursday
12,4909465.214877157
586,7536080.7964075249
2,11, 1,11, 0,11, 0.00,60.00,Thursday
12,3001938.70504626
586,4812439.431397324
2,11, 1,11, 0,12, 0.00,60.00,Thursday
12,8685750.627237339
586,3756049.151556107
2,11, 1,11, 0,13, 0.00,60.00,Thursday
12,2980213.4037197486
586,2888827.4291431775
2,11, 1,11, 0,14, 0.00,60.00,Thursday
12,2928229.555941903
586,2534426.9476917295
2,11, 1,11, 0,15, 0.00,60.00,Thursday
12,3028953.9223750766
586,2672150.5634500046
2,11, 1,11, 0,16, 0.00,60.00,Thursday
12,4273966.353342906
586,3002481.1929557437
2,11, 1,11, 0,17, 0.00,60.00,Thursday
12,3837975.6907047315
586,3339383.4016687527
2,11, 1,11, 0,18, 0.00,60.00,Thursday
12,5991349.329427443
586,3072962.9045551849
2,11, 1,11, 0,19, 0.00,60.00,Thursday
12,5642673.24784372
586,2780444.5138024108
2,11, 1,11, 0,20, 0.00,60.00,Thursday
12,7746506.376929847
586,3501850.5638074406
2,11, 1,11, 0,21, 0.00,60.00,Thursday
12,5203519.310113995
586,3958229.6900387897
2,11, 1,11, 0,22, 0.00,60.00,Thursday
12,4753473.425124225
586,3675660.437148034
2,11, 1,11, 0,23, 0.00,60.00,Thursday
12,5310467.45739145
586,4379227.141050535
2,11, 1,11, 0,24, 0.00,60.00,Thursday
12,2999808.4407431937
586,5058661.423412125
2,12, 1,12, 0, 1, 0.00,60.00,Friday
12,2351674.3383372689
586,5861388.0967899919
2,12, 1,12, 0, 2, 0.00,60.00,Friday
12,2132829.7290214046
586,6877637.616652207
2,12, 1,12, 0, 3, 0.00,60.00,Friday
12,2064586.788082584
586,7469942.50363617
2,12, 1,12, 0, 4, 0.00,60.00,Friday
12,2024838.428909325
586,8783791.707647779
2,12, 1,12, 0, 5, 0.00,60.00,Friday
12,1965601.545765132
586,9571987.285765736
2,12, 1,12, 0, 6, 0.00,60.00,Friday
12,7322054.620216293
586,9897616.573050753
2,12, 1,12, 0, 7, 0.00,60.00,Friday
12,10710224.726861742
586,10589512.110265993
2,12, 1,12, 0, 8, 0.00,60.00,Friday
12,4176717.1016287596
586,9613467.502632924
2,12, 1,12, 0, 9, 0.00,60.00,Friday
12,3244235.9236413377
586,8569469.318460186
2,12, 1,12, 0,10, 0.00,60.00,Friday
12,3137428.7741745857
586,7727929.861579354
2,12, 1,12, 0,11, 0.00,60.00,Friday
12,23336998.770032716
586,7352901.852182578
2,12, 1,12, 0,12, 0.00,60.00,Friday
12,9324695.423511308
586,5646260.451799625
2,12, 1,12, 0,13, 0.00,60.00,Friday
12,3911336.5823945079
586,5564913.936567573
2,12, 1,12, 0,14, 0.00,60.00,Friday
12,4270443.219486693
586,5382896.241727896
2,12, 1,12, 0,15, 0.00,60.00,Friday
12,3176304.2926271294
586,5228673.311426085
2,12, 1,12, 0,16, 0.00,60.00,Friday
12,3330372.858194241
586,4983633.586533057
2,12, 1,12, 0,17, 0.00,60.00,Friday
12,3968154.6058269247
586,5918169.449271123
2,12, 1,12, 0,18, 0.00,60.00,Friday
12,7411270.274690015
586,6039136.382699536
2,12, 1,12, 0,19, 0.00,60.00,Friday
12,5541430.8931708349
586,5516629.041261785
2,12, 1,12, 0,20, 0.00,60.00,Friday
12,7036214.392912789
586,5283740.0374669
2,12, 1,12, 0,21, 0.00,60.00,Friday
12,6479214.605312317
586,6202210.944607737
2,12, 1,12, 0,22, 0.00,60.00,Friday
12,7803642.266654775
586,6810279.545693513
2,12, 1,12, 0,23, 0.00,60.00,Friday
12,3992036.706587133
586,7473405.944838128
2,12, 1,12, 0,24, 0.00,60.00,Friday
12,4267253.4811229179
586,7864697.774131909
2,13, 1,13, 0, 1, 0.00,60.00,Saturday
12,2307256.9317593767
586,7668280.7616832959
2,13, 1,13, 0, 2, 0.00,60.00,Saturday
12,4707169.103174392
586,7032844.132884859
2,13, 1,13, 0, 3, 0.00,60.00,Saturday
12,1883018.8758914462
586,7356869.019530064
2,13, 1,13, 0, 4, 0.00,60.00,Saturday
12,1992872.3988343613
586,7106539.819681259
2,13, 1,13, 0, 5, 0.00,60.00,Saturday
12,1916815.2404643156
586,7012178.561291289
2,13, 1,13, 0, 6, 0.00,60.00,Saturday
12,18284151.430549787
586,8063436.320456429
2,13, 1,13, 0, 7, 0.00,60.00,Saturday
12,2352773.131859067
586,7554074.600459813
2,13, 1,13, 0, 8, 0.00,60.00,Saturday
12,3507633.74193015
586,6805898.549156541
2,13, 1,13, 0, 9, 0.00,60.00,Saturday
12,3254986.870873428
586,4972264.010737438
2,13, 1,13, 0,10, 0.00,60.00,Saturday
12,5584029.062648056
586,3894275.6642988438
2,13, 1,13, 0,11, 0.00,60.00,Saturday
12,2958498.999359485
586,2791727.251942599
2,13, 1,13, 0,12, 0.00,60.00,Saturday
12,5322991.3525717719
586,1694276.854804379
2,13, 1,13, 0,13, 0.00,60.00,Saturday
12,9846917.89688627
586,811406.5595225649
2,13, 1,13, 0,14, 0.00,60.00,Saturday
12,5309718.933767012
586,1162311.6810963257
2,13, 1,13, 0,15, 0.00,60.00,Saturday
12,2999446.0420385587
586,873183.5306321654
2,13, 1,13, 0,16, 0.00,60.00,Saturday
12,4430840.570939526
586,1039575.8936168563
2,13, 1,13, 0,17, 0.00,60.00,Saturday
12,3809642.517575374
586,1905041.677418851
2,13, 1,13, 0,18, 0.00,60.00,Saturday
12,6269541.253139188
586,2314309.7623803808
2,13, 1,13, 0,19, 0.00,60.00,Saturday
12,11185332.287360093
586,2642721.058909955
2,13, 1,13, 0,20, 0.00,60.00,Saturday
12,6330433.243496673
586,2428054.1181025307
2,13, 1,13, 0,21, 0.00,60.00,Saturday
12,8409144.25022896
586,2737155.9525950269
2,13, 1,13, 0,22, 0.00,60.00,Saturday
12,24785366.606105135
586,3965853.0573607727
2,13, 1,13, 0,23, 0.00,60.00,Saturday
12,2932729.1229113067
586,4940226.43817511
2,13, 1,13, 0,24, 0.00,60.00,Saturday
12,4225053.207744762
586,5424021.930926461
2,14, 1,14, 0, 1, 0.00,60.00,Sunday
12,2262397.144802027
586,5330294.796453248
2,14, 1,14, 0, 2, 0.00,60.00,Sunday
12,2092804.4759015449
586,4777519.735132698
2,14, 1,14, 0, 3, 0.00,60.00,Sunday
12,2018347.9971257623
586,5043801.401730638
2,14, 1,14, 0, 4, 0.00,60.00,Sunday
12,4624876.183058535
586,5266570.709035369
2,14, 1,14, 0, 5, 0.00,60.00,Sunday
12,13056741.39912059
586,5964586.493274787
2,14, 1,14, 0, 6, 0.00,60.00,Sunday
12,2150126.5602138407
586,5371003.410592143
2,14, 1,14, 0, 7, 0.00,60.00,Sunday
12,7499524.093260314
586,5707568.520775463
2,14, 1,14, 0, 8, 0.00,60.00,Sunday
12,4350248.512031844
586,5264339.43135348
2,14, 1,14, 0, 9, 0.00,60.00,Sunday
12,3163249.3417663585
586,4402296.461953223
2,14, 1,14, 0,10, 0.00,60.00,Sunday
12,6287845.720552163
586,3512504.4925962567
2,14, 1,14, 0,11, 0.00,60.00,Sunday
12,3327174.147111902
586,2569159.5937656236
2,14, 1,14, 0,12, 0.00,60.00,Sunday
12,2958741.669483069
586,1053895.6593585287
2,14, 1,14, 0,13, 0.00,60.00,Sunday
12,4280886.356086286
586,986250.8944768807
2,14, 1,14, 0,14, 0.00,60.00,Sunday
12,2858795.1173637125
586,1129402.7261752482
2,14, 1,14, 0,15, 0.00,60.00,Sunday
12,3005676.724712891
586,1450800.1601026676
2,14, 1,14, 0,16, 0.00,60.00,Sunday
12,3090954.599937948
586,1865968.1896621534
2,14, 1,14, 0,17, 0.00,60.00,Sunday
12,9090418.295200402
586,2505925.0743754997
2,14, 1,14, 0,18, 0.00,60.00,Sunday
12,7927297.962996265
586,2311031.956206643
2,14, 1,14, 0,19, 0.00,60.00,Sunday
12,5273093.019749585
586,2552253.0741196738
2,14, 1,14, 0,20, 0.00,60.00,Sunday
12,5395850.790383837
586,3077275.290552573
2,14, 1,14, 0,21, 0.00,60.00,Sunday
12,5192338.454916694
586,4092510.4493606674
2,14, 1,14, 0,22, 0.00,60.00,Sunday
12,5983047.094856244
586,4867221.48450589
2,14, 1,14, 0,23, 0.00,60.00,Sunday
12,4046734.6685123445
586,5471315.723556359
2,14, 1,14, 0,24, 0.00,60.00,Sunday
12,4287666.669865716
586,6653000.842182087
2,15, 1,15, 0, 1, 0.00,60.00,Monday
12,2293011.6840427585
586,7080111.012277247
2,15, 1,15, 0, 2, 0.00,60.00,Monday
12,2146395.823188657
586,7589448.154307209
2,15, 1,15, 0, 3, 0.00,60.00,Monday
12,2070988.6283390485
586,7805845.918337169
2,15, 1,15, 0, 4, 0.00,60.00,Monday
12,2016202.9833397656
586,8330691.421155853
2,15, 1,15, 0, 5, 0.00,60.00,Monday
12,1946560.0959329927
586,8572885.814432612
2,15, 1,15, 0, 6, 0.00,60.00,Monday
12,2243612.6385693068
586,8308699.399332445
2,15, 1,15, 0, 7, 0.00,60.00,Monday
12,3021281.0755729286
586,9009854.710865992
2,15, 1,15, 0, 8, 0.00,60.00,Monday
12,4718999.504911086
586,8319334.502660233
2,15, 1,15, 0, 9, 0.00,60.00,Monday
12,9061390.401142834
586,5682991.698950821
2,15, 1,15, 0,10, 0.00,60.00,Monday
12,2745678.7036984849
586,3880633.4125023807
2,15, 1,15, 0,11, 0.00,60.00,Monday
12,2948573.178439022
586,2491061.5650316185
2,15, 1,15, 0,12, 0.00,60.00,Monday
12,4142908.78263467
586,1078286.5139155924
2,15, 1,15, 0,13, 0.00,60.00,Monday
12,4023760.5891986649
586,556450.5118874713
2,15, 1,15, 0,14, 0.00,60.00,Monday
12,2829423.4628767345
586,231830.3035115078
2,15, 1,15, 0,15, 0.00,60.00,Monday
12,2978026.541765814
586,0.0
2,15, 1,15, 0,16, 0.00,60.00,Monday
12,5751382.796620017
586,409174.7308730794
2,15, 1,15, 0,17, 0.00,60.00,Monday
12,3708345.1457886707
586,1199637.2279953142
2,15, 1,15, 0,18, 0.00,60.00,Monday
12,6237041.20921946
586,1881316.8635119689
2,15, 1,15, 0,19, 0.00,60.00,Monday
12,12955371.367668823
586,2922951.2013476218
2,15, 1,15, 0,20, 0.00,60.00,Monday
12,6007149.076683042
586,3037397.906147142
2,15, 1,15, 0,21, 0.00,60.00,Monday
12,5107194.405954328
586,3789628.090487145
2,15, 1,15, 0,22, 0.00,60.00,Monday
12,4777730.20571928
586,4296111.591744158
2,15, 1,15, 0,23, 0.00,60.00,Monday
12,5272788.964283772
586,5596657.941295869
2,15, 1,15, 0,24, 0.00,60.00,Monday
12,3021932.981463758
586,5996648.355573096
2,16, 1,16, 0, 1, 0.00,60.00,Tuesday
12,2347578.55901574
586,5646483.287415243
2,16, 1,16, 0, 2, 0.00,60.00,Tuesday
12,2113334.3489925416
586,5854718.5089821959
2,16, 1,16, 0, 3, 0.00,60.00,Tuesday
12,2019509.659137292
586,5104753.599968832
2,16, 1,16, 0, 4, 0.00,60.00,Tuesday
12,1989161.5510884003
586,6911832.301316502
2,16, 1,16, 0, 5, 0.00,60.00,Tuesday
12,1933819.0238536564
586,7904364.038357534
2,16, 1,16, 0, 6, 0.00,60.00,Tuesday
12,2238152.0058222787
586,8022180.974524425