Program Version,EnergyPlus, Version 9.2.0-921312fa1d, YMD=2019.11.06 07:58
1,5,Environment Title[],Latitude[deg],Longitude[deg],Time Zone[],Elevation[m]
2,8,Day of Simulation[],Month[],Day of Month[],DST Indicator[1=yes 0=no],Hour[],StartMinute[],EndMinute[],DayType
3,5,Cumulative Day of Simulation[],Month[],Day of Month[],DST Indicator[1=yes 0=no],DayType  ! When Daily Report Variables Requested
4,2,Cumulative Days of Simulation[],Month[]  ! When Monthly Report Variables Requested
5,1,Cumulative Days of Simulation[] ! When Run Period Report Variables Requested
6,1,Calendar Year of Simulation[] ! When Annual Report Variables Requested
276,11,EMS,central ac and furnace supply fan cool disaggregate [J] !RunPeriod [Value,Min,Month,Day,Hour,Minute,Max,Month,Day,Hour,Minute]
277,9,EMS,central ac and furnace supply fan cool disaggregate [J] !Monthly [Value,Min,Day,Hour,Minute,Max,Day,Hour,Minute]
278,11,EMS,central ac and furnace supply fan heat disaggregate [J] !RunPeriod [Value,Min,Month,Day,Hour,Minute,Max,Month,Day,Hour,Minute]
279,9,EMS,central ac and furnace supply fan heat disaggregate [J] !Monthly [Value,Min,Day,Hour,Minute,Max,Day,Hour,Minute]
280,11,EMS,water heater EC adjustment [J] !RunPeriod [Value,Min,Month,Day,Hour,Minute,Max,Month,Day,Hour,Minute]
281,1,CENTRAL AC AND FURNACE AIRLOOP RET AIR ZONE,Zone Mean Air Temperature [C] !Hourly
282,1,LIVING,Zone Mean Air Temperature [C] !Hourly
284,1,UNVENTED ATTIC,Zone Mean Air Temperature [C] !Hourly
586,11,FURNACE HTG COIL,Heating Coil Gas Energy [J] !RunPeriod [Value,Min,Month,Day,Hour,Minute,Max,Month,Day,Hour,Minute]
650,11,CENTRAL AC CLG COIL,Cooling Coil Electric Energy [J] !RunPeriod [Value,Min,Month,Day,Hour,Minute,Max,Month,Day,Hour,Minute]
877,11,WATER USE CONNECTIONS 1,Water Use Connections Plant Hot Water Energy [J] !RunPeriod [Value,Min,Month,Day,Hour,Minute,Max,Month,Day,Hour,Minute]
914,11,WATER HEATER,Water Heater Heat Loss Energy [J] !RunPeriod [Value,Min,Month,Day,Hour,Minute,Max,Month,Day,Hour,Minute]
929,11,WATER HEATER,Water Heater Electric Energy [J] !RunPeriod [Value,Min,Month,Day,Hour,Minute,Max,Month,Day,Hour,Minute]
967,11,WATER HEATER,Water Heater Off Cycle Parasitic Electric Energy [J] !RunPeriod [Value,Min,Month,Day,Hour,Minute,Max,Month,Day,Hour,Minute]
969,11,WATER HEATER,Water Heater On Cycle Parasitic Electric Energy [J] !RunPeriod [Value,Min,Month,Day,Hour,Minute,Max,Month,Day,Hour,Minute]
1132,11,CENTRAL AC CLG COIL,Cooling Coil Crankcase Heater Electric Energy [J] !RunPeriod [Value,Min,Month,Day,Hour,Minute,Max,Month,Day,Hour,Minute]
End of Data Dictionary
1,RUN PERIOD 1,  39.83,-104.65,  -7.00,1650.00
2,1, 1, 1, 0, 1, 0.00,60.00,Monday
281,22.544518350187578
282,20.004407256976707
284,-7.706591405659532
2,1, 1, 1, 0, 2, 0.00,60.00,Monday
281,22.52371198666874
282,20.000111711799855
284,-10.274293160430299
2,1, 1, 1, 0, 3, 0.00,60.00,Monday
281,22.493526539892899
282,20.00000288102534
284,-12.220535687280579
2,1, 1, 1, 0, 4, 0.00,60.00,Monday
281,22.455860436377564
282,20.000000090189329
284,-13.545128195543143
2,1, 1, 1, 0, 5, 0.00,60.00,Monday
281,22.41301780606603
282,20.00000000312695
284,-14.312916645897652
2,1, 1, 1, 0, 6, 0.00,60.00,Monday
281,22.36863441495878
282,20.000000000110448
284,-14.548911078946498
2,1, 1, 1, 0, 7, 0.00,60.00,Monday
281,22.324774246031386
282,20.000000000003938
284,-14.423739007646596
2,1, 1, 1, 0, 8, 0.00,60.00,Monday
281,22.282794604122278
282,20.000003285751867
284,-13.473065251288992
2,1, 1, 1, 0, 9, 0.00,60.00,Monday
281,22.244319808207555
282,20.00001339904696
284,-11.064642376312785
2,1, 1, 1, 0,10, 0.00,60.00,Monday
281,22.215605284772836
282,20.00000930022299
284,-6.3991747249632529
2,1, 1, 1, 0,11, 0.00,60.00,Monday
281,22.198739923545703
282,20.000004552375719
284,-0.6441173306768067
2,1, 1, 1, 0,12, 0.00,60.00,Monday
281,22.188678935222414
282,20.000003341926964
284,4.584418982974178
2,1, 1, 1, 0,13, 0.00,60.00,Monday
281,22.179836331089129
282,20.00000335775629
284,7.637011278766259
2,1, 1, 1, 0,14, 0.00,60.00,Monday
281,22.170093883341488
282,20.000002908105349
284,9.097878868523348
2,1, 1, 1, 0,15, 0.00,60.00,Monday
281,22.161544786852454
282,20.000000035328364
284,9.56186770923608
2,1, 1, 1, 0,16, 0.00,60.00,Monday
281,22.153139684731195
282,20.000000000454546
284,8.803792937673038
2,1, 1, 1, 0,17, 0.00,60.00,Monday
281,22.14204144249601
282,20.00000000000807
284,6.53552500513311
2,1, 1, 1, 0,18, 0.00,60.00,Monday
281,22.125665767384719
282,20.000001277452598
284,3.9158669156352885
2,1, 1, 1, 0,19, 0.00,60.00,Monday
281,22.103450572578909
282,20.00002096521681
284,1.2274588977780148
2,1, 1, 1, 0,20, 0.00,60.00,Monday
281,22.078553234300487
282,20.00006070578837
284,-0.7912050526587544
2,1, 1, 1, 0,21, 0.00,60.00,Monday
281,22.05290398296111
282,20.000046115677845
284,-2.5758860777357697
2,1, 1, 1, 0,22, 0.00,60.00,Monday
281,22.0252617682169
282,20.000023681482945
284,-4.0272751369399499
2,1, 1, 1, 0,23, 0.00,60.00,Monday
281,21.99402562448726
282,20.000019293348545
284,-4.9397003850168679
2,1, 1, 1, 0,24, 0.00,60.00,Monday
281,21.955643917979704
282,20.000012123771513
284,-5.096176709947229
2,2, 1, 2, 0, 1, 0.00,60.00,Tuesday
281,21.912543032359684
282,20.000000631293898
284,-4.78198445701195
2,2, 1, 2, 0, 2, 0.00,60.00,Tuesday
281,21.868893436968127
282,20.000000033296378
284,-4.701894436545852
2,2, 1, 2, 0, 3, 0.00,60.00,Tuesday
281,21.825482967438466
282,20.00000000178788
284,-4.7856165844933919
2,2, 1, 2, 0, 4, 0.00,60.00,Tuesday
281,21.780403431787517
282,20.000000000103886
284,-5.076732956739931
2,2, 1, 2, 0, 5, 0.00,60.00,Tuesday
281,21.73703975020438
282,20.0000000000057
284,-5.423041586960941
2,2, 1, 2, 0, 6, 0.00,60.00,Tuesday
281,21.69504787891534
282,20.0000000000003
284,-5.888041534373445
2,2, 1, 2, 0, 7, 0.00,60.00,Tuesday
281,21.655016278464339
282,19.999999999999955
284,-5.9921842588174079
2,2, 1, 2, 0, 8, 0.00,60.00,Tuesday
281,21.618910281859429
282,20.000000000000026
284,-5.727979620106867
2,2, 1, 2, 0, 9, 0.00,60.00,Tuesday
281,21.586107432190329
282,20.000000000000008
284,-4.356070441548834
2,2, 1, 2, 0,10, 0.00,60.00,Tuesday
281,21.560249283560226
282,20.000000000000055
284,-0.8926151867653687
2,2, 1, 2, 0,11, 0.00,60.00,Tuesday
281,21.544416412115017
282,20.00000000000003
284,4.079934357077191
2,2, 1, 2, 0,12, 0.00,60.00,Tuesday
281,21.535785538142169
282,20.00000000000002
284,9.149798175927322
2,2, 1, 2, 0,13, 0.00,60.00,Tuesday
281,21.53052011434315
282,20.000000000000015
284,12.575925284560882
2,2, 1, 2, 0,14, 0.00,60.00,Tuesday
281,21.526340724710427
282,19.99999999999999
284,14.623951048976302
2,2, 1, 2, 0,15, 0.00,60.00,Tuesday
281,21.523831746729078
282,20.000000000000019
284,15.867423547272196
2,2, 1, 2, 0,16, 0.00,60.00,Tuesday
281,21.520497053063389
282,20.00000000000001
284,15.319870097619417
2,2, 1, 2, 0,17, 0.00,60.00,Tuesday
281,21.5159959384331
282,20.00000221223165
284,12.95581074015446
2,2, 1, 2, 0,18, 0.00,60.00,Tuesday
281,21.510302341395187
282,20.00000283198693
284,10.150244834812149
2,2, 1, 2, 0,19, 0.00,60.00,Tuesday
281,21.502019098659603
282,20.00000810812279
284,7.231808775771905
2,2, 1, 2, 0,20, 0.00,60.00,Tuesday
281,21.49133108039557
282,20.000017015999679
284,4.832741768693292
2,2, 1, 2, 0,21, 0.00,60.00,Tuesday
281,21.477622343521426
282,20.000024950420156
284,2.7528733579566229
2,2, 1, 2, 0,22, 0.00,60.00,Tuesday
281,21.462735509872805
282,20.00002056362157
284,1.0569857074461795
2,2, 1, 2, 0,23, 0.00,60.00,Tuesday
281,21.447721049173123
282,20.000015641198766
284,-0.48308269004368306
2,2, 1, 2, 0,24, 0.00,60.00,Tuesday
281,21.43006644193733
282,20.000014735325708
284,-1.4219861635814629
2,3, 1, 3, 0, 1, 0.00,60.00,Wednesday
281,21.40923787841153
282,20.000033870960708
284,-1.752432200225048
2,3, 1, 3, 0, 2, 0.00,60.00,Wednesday
281,21.385778144119123
282,20.000026213558816
284,-1.7889215893446844
2,3, 1, 3, 0, 3, 0.00,60.00,Wednesday
281,21.360351601984495
282,20.000008336920659
284,-1.7819022025315275
2,3, 1, 3, 0, 4, 0.00,60.00,Wednesday
281,21.33303295810306
282,20.000000365709267
284,-1.887346173445406
2,3, 1, 3, 0, 5, 0.00,60.00,Wednesday
281,21.304053567113585
282,20.000000016784683
284,-1.9723827430890322
2,3, 1, 3, 0, 6, 0.00,60.00,Wednesday
281,21.274216486544178
282,20.00000000078491
284,-1.8000213526215335
2,3, 1, 3, 0, 7, 0.00,60.00,Wednesday
281,21.245620163760504
282,20.000000000034619
284,-1.5511021936888013
2,3, 1, 3, 0, 8, 0.00,60.00,Wednesday
281,21.218272120314017
282,20.000000000001479
284,-1.2491957881691145
2,3, 1, 3, 0, 9, 0.00,60.00,Wednesday
281,21.19490471444409
282,20.00000000000003
284,0.15549163786267937
2,3, 1, 3, 0,10, 0.00,60.00,Wednesday
281,21.175731890978829
282,20.00000000000005
284,2.7011957496600824
2,3, 1, 3, 0,11, 0.00,60.00,Wednesday
281,21.161682238493478
282,20.000021885244615
284,6.549212851504541
2,3, 1, 3, 0,12, 0.00,60.00,Wednesday
281,21.151880401831297
282,20.000040448090148
284,10.093080601477738
2,3, 1, 3, 0,13, 0.00,60.00,Wednesday
281,21.14335370360033
282,20.000017477595173
284,11.889370006639723
2,3, 1, 3, 0,14, 0.00,60.00,Wednesday
281,21.133949290746054
282,20.000000445382324
284,12.267622843321206
2,3, 1, 3, 0,15, 0.00,60.00,Wednesday
281,21.125568012980187
282,20.000000009902345
284,11.613409400253408
2,3, 1, 3, 0,16, 0.00,60.00,Wednesday
281,21.115542735081236
282,20.000000000280914
284,9.476524837847192
2,3, 1, 3, 0,17, 0.00,60.00,Wednesday
281,21.102848782166175
282,20.00000000000967
284,6.3794586167571289
2,3, 1, 3, 0,18, 0.00,60.00,Wednesday
281,21.087633693646116
282,20.000000000000445
284,3.138984871185628
2,3, 1, 3, 0,19, 0.00,60.00,Wednesday
281,21.07101510679584
282,20.000000000000044
284,0.5433363780030113
2,3, 1, 3, 0,20, 0.00,60.00,Wednesday
281,21.053242584293338
282,20.000000000000076
284,-1.6755214689995784
2,3, 1, 3, 0,21, 0.00,60.00,Wednesday
281,21.032156001647175
282,20.000070584309257
284,-3.674060994178953
2,3, 1, 3, 0,22, 0.00,60.00,Wednesday
281,21.00683447511517
282,20.00005120429323
284,-5.2995183643894
2,3, 1, 3, 0,23, 0.00,60.00,Wednesday
281,20.977308051080319
282,20.000006732547346
284,-6.735125631903448
2,3, 1, 3, 0,24, 0.00,60.00,Wednesday
281,20.943401397654076
282,20.000000416576837
284,-7.818828476932212
2,4, 1, 4, 0, 1, 0.00,60.00,Thursday
281,20.905622538830327
282,20.000000027683588
284,-8.773474676673758
2,4, 1, 4, 0, 2, 0.00,60.00,Thursday
281,20.86333849635542
282,20.00000000205226
284,-9.900404973715898
2,4, 1, 4, 0, 3, 0.00,60.00,Thursday
281,20.81694247038635
282,20.000000000157667
284,-10.923421166483918
2,4, 1, 4, 0, 4, 0.00,60.00,Thursday
281,20.769357242772278
282,20.000000000012127
284,-11.651895369884964
2,4, 1, 4, 0, 5, 0.00,60.00,Thursday
281,20.722002000705044
282,20.000000000001064
284,-12.22103770298319
2,4, 1, 4, 0, 6, 0.00,60.00,Thursday
281,20.675190813876577
282,19.999999999999998
284,-12.655103884411743
2,4, 1, 4, 0, 7, 0.00,60.00,Thursday
281,20.630196758291448
282,19.999999999999987
284,-13.212435680607392
2,4, 1, 4, 0, 8, 0.00,60.00,Thursday
281,20.58855690645259
282,20.000000000000047
284,-13.075488091354796
2,4, 1, 4, 0, 9, 0.00,60.00,Thursday
281,20.551560755313529
282,19.999999999999966
284,-11.421711840559777
2,4, 1, 4, 0,10, 0.00,60.00,Thursday
281,20.520192422912897
282,20.000042686362176
284,-7.826137663978943
2,4, 1, 4, 0,11, 0.00,60.00,Thursday
281,20.49693741304948
282,20.000030887700509
284,-3.4655045070499108
2,4, 1, 4, 0,12, 0.00,60.00,Thursday
281,20.47904813555592
282,20.000008002999885
284,0.9091442110460736
2,4, 1, 4, 0,13, 0.00,60.00,Thursday
281,20.465026035313163
282,20.000021892183044
284,4.3870167986092289
2,4, 1, 4, 0,14, 0.00,60.00,Thursday
281,20.45442321067232
282,20.00001916509007
284,6.891048622342792
2,4, 1, 4, 0,15, 0.00,60.00,Thursday
281,20.445990383961573
282,20.00001393574077
284,8.738285506997455
2,4, 1, 4, 0,16, 0.00,60.00,Thursday
281,20.438414420215396
282,20.00001834307441
284,9.597454672895204
2,4, 1, 4, 0,17, 0.00,60.00,Thursday
281,20.431242319617124
282,20.000019372956016
284,9.17675750637884
2,4, 1, 4, 0,18, 0.00,60.00,Thursday
281,20.424633276387679
282,20.00002142762394
284,7.980513220078187
2,4, 1, 4, 0,19, 0.00,60.00,Thursday
281,20.418183318605217
282,20.00002919291863
284,6.820634571201906
2,4, 1, 4, 0,20, 0.00,60.00,Thursday
281,20.41189765568708
282,20.000032576452129
284,5.9318842026592979
2,4, 1, 4, 0,21, 0.00,60.00,Thursday
281,20.405588431800046
282,20.000038305059744
284,5.316672662211457
2,4, 1, 4, 0,22, 0.00,60.00,Thursday
281,20.39895035759483
282,20.000031102012338
284,4.746227583226128
2,4, 1, 4, 0,23, 0.00,60.00,Thursday
281,20.391884642720439
282,20.00002733744799
284,4.083203527771752
2,4, 1, 4, 0,24, 0.00,60.00,Thursday
281,20.38446805516994
282,20.000027163857064
284,4.556868387265036
2,5, 1, 5, 0, 1, 0.00,60.00,Friday
281,20.376824909094343
282,20.00002744809674
284,4.741429624470656
2,5, 1, 5, 0, 2, 0.00,60.00,Friday
281,20.368818424098554
282,20.000020557467697
284,5.2724976138881189
2,5, 1, 5, 0, 3, 0.00,60.00,Friday
281,20.361762484696084
282,20.000023450522045
284,6.302543784384093
2,5, 1, 5, 0, 4, 0.00,60.00,Friday
281,20.355048820868448
282,20.000027947862575
284,6.864422621013892
2,5, 1, 5, 0, 5, 0.00,60.00,Friday
281,20.3485102211156
282,20.000029039651318
284,6.742939669330203
2,5, 1, 5, 0, 6, 0.00,60.00,Friday
281,20.342150067500869
282,20.000029120810227
284,6.586470446751583
2,5, 1, 5, 0, 7, 0.00,60.00,Friday
281,20.33518692312391
282,20.000039100992614
284,5.885783962560027
2,5, 1, 5, 0, 8, 0.00,60.00,Friday
281,20.328190386278786
282,20.000049058458175
284,5.705610742287793
2,5, 1, 5, 0, 9, 0.00,60.00,Friday
281,20.323407219007298
282,20.000037721868297
284,7.110074035305112
2,5, 1, 5, 0,10, 0.00,60.00,Friday
281,20.320522871320866
282,20.000010503134946
284,10.13247090406329
2,5, 1, 5, 0,11, 0.00,60.00,Friday
281,20.3189547314062
282,20.000007687228668
284,13.67395119130797
2,5, 1, 5, 0,12, 0.00,60.00,Friday
281,20.318354415787565
282,20.115735794613835
284,17.44850563766138
2,5, 1, 5, 0,13, 0.00,60.00,Friday
281,20.318354407629653
282,20.284265959112664
284,20.476997912776967
2,5, 1, 5, 0,14, 0.00,60.00,Friday
281,20.318354416829107
282,20.387161698870164
284,22.21402625357583
2,5, 1, 5, 0,15, 0.00,60.00,Friday
281,20.318354416829729
282,20.37755121171069
284,22.035092858965748
2,5, 1, 5, 0,16, 0.00,60.00,Friday
281,20.31835441682959
282,20.32834993902722
284,19.791330899361136
2,5, 1, 5, 0,17, 0.00,60.00,Friday
281,20.318354416829594
282,20.13138333065752
284,16.648281958900414
2,5, 1, 5, 0,18, 0.00,60.00,Friday
281,20.318354416829594
282,20.019242233634829
284,13.280755150058355
2,5, 1, 5, 0,19, 0.00,60.00,Friday
281,20.31805922089862
282,20.000102705353929
284,10.157963848246954
2,5, 1, 5, 0,20, 0.00,60.00,Friday
281,20.317106764088785
282,20.000039088563616
284,7.798149284113945
2,5, 1, 5, 0,21, 0.00,60.00,Friday
281,20.315137332549918
282,20.000022845879774
284,5.8745745702971459
2,5, 1, 5, 0,22, 0.00,60.00,Friday
281,20.31188893952124
282,20.000006446523778
284,4.099689343951151
2,5, 1, 5, 0,23, 0.00,60.00,Friday
281,20.30764147572204
282,20.000011132475679
284,2.534805770266471
2,5, 1, 5, 0,24, 0.00,60.00,Friday
281,20.302228352494553
282,20.000017013712147
284,1.4142454530825258
2,6, 1, 6, 0, 1, 0.00,60.00,Saturday
281,20.29529564774536
282,20.000010259770066
284,0.8785197478323004
2,6, 1, 6, 0, 2, 0.00,60.00,Saturday
281,20.287292743925059
282,20.000000338416453
284,0.790816625062099
2,6, 1, 6, 0, 3, 0.00,60.00,Saturday
281,20.278733084701398
282,20.000001789647898
284,0.7095693757408982
2,6, 1, 6, 0, 4, 0.00,60.00,Saturday
281,20.269471957799185
282,20.00000006610498
284,0.4448035623691911
2,6, 1, 6, 0, 5, 0.00,60.00,Saturday
281,20.259186939038938
282,20.000000002559387
284,-0.2533150210120528
2,6, 1, 6, 0, 6, 0.00,60.00,Saturday
281,20.247783148003714
282,20.000000000110945
284,-0.9502267664161695
2,6, 1, 6, 0, 7, 0.00,60.00,Saturday
281,20.235117525848403
282,20.000062315581137
284,-1.1473556871078006
2,6, 1, 6, 0, 8, 0.00,60.00,Saturday
281,20.222771894040588
282,20.0000428169962
284,-1.0635740505858907
2,6, 1, 6, 0, 9, 0.00,60.00,Saturday
281,20.210828736546877
282,20.000001584977804
284,0.14921422443986158
2,6, 1, 6, 0,10, 0.00,60.00,Saturday
281,20.200944918692455
282,20.000000053973513
284,2.1080456373769604
2,6, 1, 6, 0,11, 0.00,60.00,Saturday
281,20.193297441434394
282,20.000000001477799
284,5.766170674239786
2,6, 1, 6, 0,12, 0.00,60.00,Saturday
281,20.188403673446996
282,20.000000000031649
284,9.338218343700497
2,6, 1, 6, 0,13, 0.00,60.00,Saturday
281,20.18526788197213
282,20.00000000000069
284,10.91419263148314
2,6, 1, 6, 0,14, 0.00,60.00,Saturday
281,20.18247825661376
282,20.000012077853474
284,11.133069154366519
2,6, 1, 6, 0,15, 0.00,60.00,Saturday
281,20.17980702753539
282,20.000008333589656
284,10.669688727172627
2,6, 1, 6, 0,16, 0.00,60.00,Saturday
281,20.17711346727102
282,20.000000158925145
284,9.383510829404102
2,6, 1, 6, 0,17, 0.00,60.00,Saturday
281,20.17368999051634
282,20.000000004445224
284,7.301149020413563
2,6, 1, 6, 0,18, 0.00,60.00,Saturday
281,20.16876508449261
282,20.0000000001324
284,4.8586927276481959
2,6, 1, 6, 0,19, 0.00,60.00,Saturday
281,20.1631292071326
282,20.000000000004478
284,2.3169486732735145
2,6, 1, 6, 0,20, 0.00,60.00,Saturday
281,20.156066058009516
282,20.0000394308497
284,0.41021702752944058
2,6, 1, 6, 0,21, 0.00,60.00,Saturday
281,20.147510303719665
282,20.00003963686125
284,-1.3120255638811856
2,6, 1, 6, 0,22, 0.00,60.00,Saturday
281,20.13782700474666
282,20.000053103091476
284,-2.9171259308383479
2,6, 1, 6, 0,23, 0.00,60.00,Saturday
281,20.12561214856971
282,20.000155041062894
284,-4.000408732999337
2,6, 1, 6, 0,24, 0.00,60.00,Saturday
281,20.111766232223009
282,20.00010913701074
284,-4.84604960580153
2,7, 1, 7, 0, 1, 0.00,60.00,Sunday
281,20.0956308181625
282,20.000016873029805
284,-5.456288539149899
2,7, 1, 7, 0, 2, 0.00,60.00,Sunday
281,20.07784774886115
282,20.00000097952139
284,-5.817312194175988
2,7, 1, 7, 0, 3, 0.00,60.00,Sunday
281,20.05976558980042
282,20.00000006295519
284,-6.404091539841613
2,7, 1, 7, 0, 4, 0.00,60.00,Sunday
281,20.03931253880542
282,20.00000000431779
284,-7.236158138431114
2,7, 1, 7, 0, 5, 0.00,60.00,Sunday
281,20.016903983922107
282,20.000000000324439
284,-8.335981671756379
2,7, 1, 7, 0, 6, 0.00,60.00,Sunday
281,19.99148818380501
282,20.00002438006524
284,-8.984811240814132
2,7, 1, 7, 0, 7, 0.00,60.00,Sunday
281,19.966565532533879
282,20.000001788600505
284,-9.387559294469242
2,7, 1, 7, 0, 8, 0.00,60.00,Sunday
281,19.941332506468038
282,20.00000010080331
284,-8.099043635922572
2,7, 1, 7, 0, 9, 0.00,60.00,Sunday
281,19.92372872703171
282,20.000000005312285
284,-5.894171667885585
2,7, 1, 7, 0,10, 0.00,60.00,Sunday
281,19.9090917823672
282,20.00000000026361
284,-3.420909043829366
2,7, 1, 7, 0,11, 0.00,60.00,Sunday
281,19.89698982851058
282,20.000000000011985
284,-0.9809149687409521
2,7, 1, 7, 0,12, 0.00,60.00,Sunday
281,19.88747565932049
282,20.000000000000506
284,1.4546480459605924
2,7, 1, 7, 0,13, 0.00,60.00,Sunday
281,19.880263550388546
282,19.999999999999927
284,3.615660131066827
2,7, 1, 7, 0,14, 0.00,60.00,Sunday
281,19.874583839513958
282,20.00000000000002
284,5.129912669757232
2,7, 1, 7, 0,15, 0.00,60.00,Sunday
281,19.86972908919291
282,19.999999999999987
284,5.777446113637461
2,7, 1, 7, 0,16, 0.00,60.00,Sunday
281,19.86530609031742
282,20.00000000000007
284,5.745777350541421
2,7, 1, 7, 0,17, 0.00,60.00,Sunday
281,19.86093104055657
282,19.999999999999905
284,5.380156157947383
2,7, 1, 7, 0,18, 0.00,60.00,Sunday
281,19.856307244549613
282,20.00000000000004
284,5.083139427901889
2,7, 1, 7, 0,19, 0.00,60.00,Sunday
281,19.85216149469089
282,20.00000000000004
284,4.759861616284861
2,7, 1, 7, 0,20, 0.00,60.00,Sunday
281,19.84857305686493
282,20.00000000000005
284,4.397171619362273
2,7, 1, 7, 0,21, 0.00,60.00,Sunday
281,19.845009002190524
282,20.00000000000001
284,3.7634487368968174
2,7, 1, 7, 0,22, 0.00,60.00,Sunday
281,19.840807276721106
282,20.00000000000011
284,2.523479702080984
2,7, 1, 7, 0,23, 0.00,60.00,Sunday
281,19.83552574601478
282,20.000000000000058
284,1.383008513166696
2,7, 1, 7, 0,24, 0.00,60.00,Sunday
281,19.82938851055706
282,20.000001337653154
284,1.1146935310838529
2,8, 1, 8, 0, 1, 0.00,60.00,Monday
281,19.823583404216504
282,20.000002727481939
284,1.2986992370897055
2,8, 1, 8, 0, 2, 0.00,60.00,Monday
281,19.817672213715086
282,20.00000011593739
284,1.4012712847572003
2,8, 1, 8, 0, 3, 0.00,60.00,Monday
281,19.81161703281715
282,20.00000000537956
284,1.1614358054689152
2,8, 1, 8, 0, 4, 0.00,60.00,Monday
281,19.805347685475746
282,20.000000000305243
284,0.7356081975517937
2,8, 1, 8, 0, 5, 0.00,60.00,Monday
281,19.79649315255647
282,20.000000000017807
284,0.2301558827373192
2,8, 1, 8, 0, 6, 0.00,60.00,Monday
281,19.786766858648368
282,20.000000000001007
284,-0.5892366542946425
2,8, 1, 8, 0, 7, 0.00,60.00,Monday
281,19.77792040580149
282,20.000000000000044
284,-1.6197809719207628
2,8, 1, 8, 0, 8, 0.00,60.00,Monday
281,19.76768824818136
282,20.000000000000033
284,-2.0723947989943678
2,8, 1, 8, 0, 9, 0.00,60.00,Monday
281,19.75824415921308
282,20.000000000000033
284,-0.30106466093348308
2,8, 1, 8, 0,10, 0.00,60.00,Monday
281,19.75152812338727
282,20.00000000000005
284,2.7814146021290675
2,8, 1, 8, 0,11, 0.00,60.00,Monday
281,19.748123483621158
282,19.999999999999955
284,6.567583707127537
2,8, 1, 8, 0,12, 0.00,60.00,Monday
281,19.746176581558893
282,19.999999999999976
284,10.051721421127589
2,8, 1, 8, 0,13, 0.00,60.00,Monday
281,19.745100502373878
282,20.000000000000005
284,13.190000637606842
2,8, 1, 8, 0,14, 0.00,60.00,Monday
281,19.744598272973069
282,20.0
284,15.68389936627708
2,8, 1, 8, 0,15, 0.00,60.00,Monday
281,19.744610537609164
282,20.000000000000008
284,16.623034400119648
2,8, 1, 8, 0,16, 0.00,60.00,Monday
281,19.744543314194457
282,20.002244742564814
284,15.855044228715375
2,8, 1, 8, 0,17, 0.00,60.00,Monday
281,19.74513412715357
282,20.000017972823657
284,13.593123069883946
2,8, 1, 8, 0,18, 0.00,60.00,Monday
281,19.745886303935479
282,20.000000329577305
284,10.281675298559133
2,8, 1, 8, 0,19, 0.00,60.00,Monday
281,19.745893603999755
282,20.00000208705767
284,7.082836852258436
2,8, 1, 8, 0,20, 0.00,60.00,Monday
281,19.744832651816254
282,20.000047822625527
284,4.5725004535100599
2,8, 1, 8, 0,21, 0.00,60.00,Monday
281,19.742346003777219
282,20.000046589830985
284,2.773810794016694
2,8, 1, 8, 0,22, 0.00,60.00,Monday
281,19.740035029191895
282,20.00003473511094
284,1.4239679162668278
2,8, 1, 8, 0,23, 0.00,60.00,Monday
281,19.736371256384218
282,20.00002579673178
284,0.44661754183700699
2,8, 1, 8, 0,24, 0.00,60.00,Monday
281,19.733059387487537
282,20.000031965719694
284,-0.35999937927606309
2,9, 1, 9, 0, 1, 0.00,60.00,Tuesday
281,19.728269305503948
282,20.000029032127974
284,-1.0832372264703765
2,9, 1, 9, 0, 2, 0.00,60.00,Tuesday
281,19.722005710203768
282,20.00002502867367
284,-1.6890037868184989
2,9, 1, 9, 0, 3, 0.00,60.00,Tuesday
281,19.71514373333691
282,20.000021344110299
284,-2.134812335352005
2,9, 1, 9, 0, 4, 0.00,60.00,Tuesday
281,19.70775606633708
282,20.000019166744609
284,-2.4423339693818768
2,9, 1, 9, 0, 5, 0.00,60.00,Tuesday
281,19.699884215884027
282,20.00001809263615
284,-2.826856142827958
2,9, 1, 9, 0, 6, 0.00,60.00,Tuesday
281,19.6917627274743
282,20.000018964743114
284,-3.1164754416084157
2,9, 1, 9, 0, 7, 0.00,60.00,Tuesday
281,19.68324220810671
282,20.00001254400709
284,-4.124128749729262
2,9, 1, 9, 0, 8, 0.00,60.00,Tuesday
281,19.673633422878568
282,20.00001492646528
284,-4.249636512606883
2,9, 1, 9, 0, 9, 0.00,60.00,Tuesday
281,19.665081660865675
282,20.00001480840499
284,-1.9774072779359129
2,9, 1, 9, 0,10, 0.00,60.00,Tuesday
281,19.659206805310899
282,20.00000070776567
284,1.125811325844213
2,9, 1, 9, 0,11, 0.00,60.00,Tuesday
281,19.65553751278108
282,20.000000018154397
284,4.834302398589569
2,9, 1, 9, 0,12, 0.00,60.00,Tuesday
281,19.653661429987925
282,20.000000000407284
284,8.244457723388273
2,9, 1, 9, 0,13, 0.00,60.00,Tuesday
281,19.65301064413905
282,20.0000000000081
284,10.556716606426976
2,9, 1, 9, 0,14, 0.00,60.00,Tuesday
281,19.65275015699455
282,20.000000000000165
284,11.758685015792189
2,9, 1, 9, 0,15, 0.00,60.00,Tuesday
281,19.65254004298859
282,19.999999999999984
284,12.158250724189344
2,9, 1, 9, 0,16, 0.00,60.00,Tuesday
281,19.65269280015355
282,20.000000000000005
284,11.522265414139874
2,9, 1, 9, 0,17, 0.00,60.00,Tuesday
281,19.653338485230795
282,20.000000000000015
284,9.794041094354228
2,9, 1, 9, 0,18, 0.00,60.00,Tuesday
281,19.6537489261428
282,20.0
284,7.300086106168845
2,9, 1, 9, 0,19, 0.00,60.00,Tuesday
281,19.653431272763585
282,20.000005240895925
284,4.822824398983498
2,9, 1, 9, 0,20, 0.00,60.00,Tuesday
281,19.652220979776584
282,20.000021739846198
284,3.1111030093489115
2,9, 1, 9, 0,21, 0.00,60.00,Tuesday
281,19.651140911405464
282,20.0000461883763
284,1.6681236379921836
2,9, 1, 9, 0,22, 0.00,60.00,Tuesday
281,19.648903728566954
282,20.000046717844325
284,0.5035004281392977
2,9, 1, 9, 0,23, 0.00,60.00,Tuesday
281,19.646079673343363
282,20.000048445771446
284,-0.5036488587809347
2,9, 1, 9, 0,24, 0.00,60.00,Tuesday
281,19.64288725485823
282,20.00005276970438
284,-1.522994713338921
2,10, 1,10, 0, 1, 0.00,60.00,Wednesday
281,19.637601192785995
282,20.00007191498893
284,-2.32192501419712
2,10, 1,10, 0, 2, 0.00,60.00,Wednesday
281,19.63150509993883
282,20.00005768408299
284,-3.0203527174986597
2,10, 1,10, 0, 3, 0.00,60.00,Wednesday
281,19.62440352989431
282,20.000027409303106
284,-3.632680281795493
2,10, 1,10, 0, 4, 0.00,60.00,Wednesday
281,19.617421222595924
282,20.000014080089075
284,-4.141215019379547
2,10, 1,10, 0, 5, 0.00,60.00,Wednesday
281,19.609146394695828
282,20.000002339086309
284,-4.497521130803977
2,10, 1,10, 0, 6, 0.00,60.00,Wednesday
281,19.60029625054987
282,20.000000139704647
284,-4.96291858340809
2,10, 1,10, 0, 7, 0.00,60.00,Wednesday
281,19.59044518940606
282,20.000000007896888
284,-5.291100572631783
2,10, 1,10, 0, 8, 0.00,60.00,Wednesday
281,19.5811639991469
282,20.00000000042881
284,-4.990788383975512
2,10, 1,10, 0, 9, 0.00,60.00,Wednesday
281,19.571391654468714
282,20.00000000001933
284,-2.9228381346319578
2,10, 1,10, 0,10, 0.00,60.00,Wednesday
281,19.564765960013636
282,20.00000000000068
284,0.06482728155317523
2,10, 1,10, 0,11, 0.00,60.00,Wednesday
281,19.560286517048146
282,20.000013738675926
284,4.399043475552671
2,10, 1,10, 0,12, 0.00,60.00,Wednesday
281,19.55770752611302
282,20.00001793249956
284,8.718827639749702
2,10, 1,10, 0,13, 0.00,60.00,Wednesday
281,19.55684549223964
282,20.000000934050268
284,13.126218984248187
2,10, 1,10, 0,14, 0.00,60.00,Wednesday
281,19.556908865047747
282,20.00000000532198
284,16.243132567326066
2,10, 1,10, 0,15, 0.00,60.00,Wednesday
281,19.556890952775328
282,20.000000000008219
284,17.871263445884144
2,10, 1,10, 0,16, 0.00,60.00,Wednesday
281,19.5570389275971
282,20.000000000000008
284,17.153546055107154
2,10, 1,10, 0,17, 0.00,60.00,Wednesday
281,19.558109386702879
282,19.999999999999998
284,14.445971291204648
2,10, 1,10, 0,18, 0.00,60.00,Wednesday
281,19.5597535164932
282,19.99999999999998
284,10.76227643278289
2,10, 1,10, 0,19, 0.00,60.00,Wednesday
281,19.560892515607429
282,19.999999999999984
284,7.174119222469895
2,10, 1,10, 0,20, 0.00,60.00,Wednesday
281,19.56092301664867
282,19.99999999999993
284,4.228880270501994
2,10, 1,10, 0,21, 0.00,60.00,Wednesday
281,19.560466466275256
282,20.000042232760234
284,2.169136046007775
2,10, 1,10, 0,22, 0.00,60.00,Wednesday
281,19.560085333307307
282,20.000043880758683
284,0.5670620193539755
2,10, 1,10, 0,23, 0.00,60.00,Wednesday
281,19.558312758618233
282,20.0000136334465
284,-0.8900655920471772
2,10, 1,10, 0,24, 0.00,60.00,Wednesday
281,19.556699029042055
282,20.000003954938984
284,-2.051375500444622
2,11, 1,11, 0, 1, 0.00,60.00,Thursday
281,19.552076362575396
282,20.000000207063793
284,-2.868300435814941
2,11, 1,11, 0, 2, 0.00,60.00,Thursday
281,19.547117026195193
282,20.000000011407527
284,-3.670347250176741
2,11, 1,11, 0, 3, 0.00,60.00,Thursday
281,19.540666755214656
282,20.000000000617768
284,-4.389969673920292
2,11, 1,11, 0, 4, 0.00,60.00,Thursday
281,19.5344328456703
282,20.00000000003502
284,-4.785123528912238
2,11, 1,11, 0, 5, 0.00,60.00,Thursday
281,19.527364695291945
282,20.000000000002076
284,-4.72930753892331
2,11, 1,11, 0, 6, 0.00,60.00,Thursday
281,19.519502971080134
282,20.000000000000147
284,-4.411875789166011
2,11, 1,11, 0, 7, 0.00,60.00,Thursday
281,19.512321231227739
282,20.00000000000006
284,-4.186404468792449
2,11, 1,11, 0, 8, 0.00,60.00,Thursday
281,19.505531853404848
282,19.99999999999995
284,-3.749317355232912
2,11, 1,11, 0, 9, 0.00,60.00,Thursday
281,19.499345659609284
282,20.000000000000087
284,-2.311597659988904
2,11, 1,11, 0,10, 0.00,60.00,Thursday
281,19.491966204063194
282,20.000014957611996
284,0.6010320147848051
2,11, 1,11, 0,11, 0.00,60.00,Thursday
281,19.487457820818539
282,20.000000387406659
284,4.610561105810028
2,11, 1,11, 0,12, 0.00,60.00,Thursday
281,19.486028247292269
282,20.000000006972948
284,9.745721016055559
2,11, 1,11, 0,13, 0.00,60.00,Thursday
281,19.485840896978375
282,20.000000000084186
284,13.62559060361524
2,11, 1,11, 0,14, 0.00,60.00,Thursday
281,19.486193062425828
282,20.000000000000659
284,15.820946670076676
2,11, 1,11, 0,15, 0.00,60.00,Thursday
281,19.487096024541235
282,20.000000000000019
284,16.2276442184881
2,11, 1,11, 0,16, 0.00,60.00,Thursday
281,19.488375543697879
282,19.999999999999984
284,15.140969998849853
2,11, 1,11, 0,17, 0.00,60.00,Thursday
281,19.489786409352168
282,20.000000000000008
284,13.09513460818168
2,11, 1,11, 0,18, 0.00,60.00,Thursday
281,19.49066787447184
282,20.0
284,10.748665515275805
2,11, 1,11, 0,19, 0.00,60.00,Thursday
281,19.491123782389285
282,19.999999999999998
284,8.926023862150869
2,11, 1,11, 0,20, 0.00,60.00,Thursday
281,19.492090035338799
282,20.00000000000002
284,7.503469019679032
2,11, 1,11, 0,21, 0.00,60.00,Thursday
281,19.492800885740864
282,20.000006932946854
284,6.297022380361102
2,11, 1,11, 0,22, 0.00,60.00,Thursday
281,19.492781037222369
282,20.000006226824124
284,5.649140530144648