Program Version,EnergyPlus, Version 9.2.0-921312fa1d, YMD=2019.11.06 07:58
1,5,Environment Title[],Latitude[deg],Longitude[deg],Time Zone[],Elevation[m]
2,8,Day of Simulation[],Month[],Day of Month[],DST Indicator[1=yes 0=no],Hour[],StartMinute[],EndMinute[],DayType
3,5,Cumulative Day of Simulation[],Month[],Day of Month[],DST Indicator[1=yes 0=no],DayType  ! When Daily Meters Requested
4,2,Cumulative Days of Simulation[],Month[]  ! When Monthly Meters Requested
5,1,Cumulative Days of Simulation[] ! When Run Period Meters Requested
6,1,Calendar Year of Simulation[] ! When Annual Meters Requested
16,11,Electricity:Facility [J] !RunPeriod [Value,Min,Month,Day,Hour,Minute,Max,Month,Day,Hour,Minute]
353,11,Cooling:EnergyTransfer [J] !RunPeriod [Value,Min,Month,Day,Hour,Minute,Max,Month,Day,Hour,Minute]
592,11,Gas:Facility [J] !RunPeriod [Value,Min,Month,Day,Hour,Minute,Max,Month,Day,Hour,Minute]
165,11,cooking range:InteriorEquipment:Electricity [J] !RunPeriod [Value,Min,Month,Day,Hour,Minute,Max,Month,Day,Hour,Minute]
516,11,Cooling:DistrictCooling [J] !RunPeriod [Value,Min,Month,Day,Hour,Minute,Max,Month,Day,Hour,Minute]
328,11,Heating:EnergyTransfer [J] !RunPeriod [Value,Min,Month,Day,Hour,Minute,Max,Month,Day,Hour,Minute]
479,11,Heating:DistrictHeating [J] !RunPeriod [Value,Min,Month,Day,Hour,Minute,Max,Month,Day,Hour,Minute]
115,11,InteriorEquipment:Electricity [J] !RunPeriod [Value,Min,Month,Day,Hour,Minute,Max,Month,Day,Hour,Minute]
102,11,interior lighting:InteriorLights:Electricity [J] !RunPeriod [Value,Min,Month,Day,Hour,Minute,Max,Month,Day,Hour,Minute]
191,11,fridge:InteriorEquipment:Electricity [J] !RunPeriod [Value,Min,Month,Day,Hour,Minute,Max,Month,Day,Hour,Minute]
28,11,ExteriorLights:Electricity [J] !RunPeriod [Value,Min,Month,Day,Hour,Minute,Max,Month,Day,Hour,Minute]
588,1,Gas:Facility [J] !Hourly
178,11,dishwasher:InteriorEquipment:Electricity [J] !RunPeriod [Value,Min,Month,Day,Hour,Minute,Max,Month,Day,Hour,Minute]
152,11,clothes washer:InteriorEquipment:Electricity [J] !RunPeriod [Value,Min,Month,Day,Hour,Minute,Max,Month,Day,Hour,Minute]
139,11,clothes dryer:InteriorEquipment:Electricity [J] !RunPeriod [Value,Min,Month,Day,Hour,Minute,Max,Month,Day,Hour,Minute]
243,11,misc plug loads:InteriorEquipment:Electricity [J] !RunPeriod [Value,Min,Month,Day,Hour,Minute,Max,Month,Day,Hour,Minute]
256,11,misc tv:InteriorEquipment:Electricity [J] !RunPeriod [Value,Min,Month,Day,Hour,Minute,Max,Month,Day,Hour,Minute]
217,11,mech vent house fan:InteriorEquipment:Electricity [J] !RunPeriod [Value,Min,Month,Day,Hour,Minute,Max,Month,Day,Hour,Minute]
12,1,Electricity:Facility [J] !Hourly
End of Data Dictionary
1,RUN PERIOD 1,  39.83,-104.65,  -7.00,1650.00
2,1, 1, 1, 0, 1, 0.00,60.00,Monday
12,2281624.0534372946
588,2185862.161115714
2,1, 1, 1, 0, 2, 0.00,60.00,Monday
12,2089399.1055841789
588,4598840.562879131
2,1, 1, 1, 0, 3, 0.00,60.00,Monday
12,2037126.35869379
588,6029098.678841077
2,1, 1, 1, 0, 4, 0.00,60.00,Monday
12,1997355.9120020513
588,7341788.954703523
2,1, 1, 1, 0, 5, 0.00,60.00,Monday
12,1938048.354484979
588,8126276.261101023
2,1, 1, 1, 0, 6, 0.00,60.00,Monday
12,2241936.192053604
588,8220736.5501158549
2,1, 1, 1, 0, 7, 0.00,60.00,Monday
12,3004850.0259186786
588,8147720.470572989
2,1, 1, 1, 0, 8, 0.00,60.00,Monday
12,3560124.4877198378
588,7807353.256227485
2,1, 1, 1, 0, 9, 0.00,60.00,Monday
12,10663408.359984126
588,7210400.122108425
2,1, 1, 1, 0,10, 0.00,60.00,Monday
12,2662599.556652261
588,4986333.861327115
2,1, 1, 1, 0,11, 0.00,60.00,Monday
12,3137317.166066837
588,2949857.033931427
2,1, 1, 1, 0,12, 0.00,60.00,Monday
12,3200723.192661276
588,2054221.9092309874
2,1, 1, 1, 0,13, 0.00,60.00,Monday
12,4312880.8078443319
588,2169285.7480998456
2,1, 1, 1, 0,14, 0.00,60.00,Monday
12,3053364.7232837339
588,2532975.5740162224
2,1, 1, 1, 0,15, 0.00,60.00,Monday
12,4369259.536516616
588,2164330.410654208
2,1, 1, 1, 0,16, 0.00,60.00,Monday
12,4664482.311298209
588,2211469.670409228
2,1, 1, 1, 0,17, 0.00,60.00,Monday
12,3828123.221378745
588,3019386.467468815
2,1, 1, 1, 0,18, 0.00,60.00,Monday
12,6283924.546596341
588,4420590.374386087
2,1, 1, 1, 0,19, 0.00,60.00,Monday
12,13325563.884447743
588,5790672.276488109
2,1, 1, 1, 0,20, 0.00,60.00,Monday
12,5787293.986413203
588,6071036.766642085
2,1, 1, 1, 0,21, 0.00,60.00,Monday
12,5168793.716301717
588,6085756.098175874
2,1, 1, 1, 0,22, 0.00,60.00,Monday
12,4822095.788897475
588,6623965.816114821
2,1, 1, 1, 0,23, 0.00,60.00,Monday
12,5309534.438701729
588,7532661.157535025
2,1, 1, 1, 0,24, 0.00,60.00,Monday
12,3090186.9462027635
588,9577365.27223431
2,2, 1, 2, 0, 1, 0.00,60.00,Tuesday
12,2439141.2582552579
588,10450761.760739688
2,2, 1, 2, 0, 2, 0.00,60.00,Tuesday
12,2202528.111474699
588,10534699.293809267
2,2, 1, 2, 0, 3, 0.00,60.00,Tuesday
12,2125663.293648418
588,10674615.840627252
2,2, 1, 2, 0, 4, 0.00,60.00,Tuesday
12,2076203.293550835
588,11478896.980122377
2,2, 1, 2, 0, 5, 0.00,60.00,Tuesday
12,1985867.147430707
588,10635319.78512995
2,2, 1, 2, 0, 6, 0.00,60.00,Tuesday
12,2289753.3716403075
588,10729695.421484955
2,2, 1, 2, 0, 7, 0.00,60.00,Tuesday
12,3041038.3171262
588,10046513.645945616
2,2, 1, 2, 0, 8, 0.00,60.00,Tuesday
12,4758703.645141486
588,9030726.821471412
2,2, 1, 2, 0, 9, 0.00,60.00,Tuesday
12,3239916.594668342
588,8484139.040977417
2,2, 1, 2, 0,10, 0.00,60.00,Tuesday
12,4344565.833871674
588,6263549.317383847
2,2, 1, 2, 0,11, 0.00,60.00,Tuesday
12,4265091.024719519
588,3774613.41044909
2,2, 1, 2, 0,12, 0.00,60.00,Tuesday
12,3122366.2159275838
588,2329527.883906343
2,2, 1, 2, 0,13, 0.00,60.00,Tuesday
12,4259464.403630326
588,1690556.0464731686
2,2, 1, 2, 0,14, 0.00,60.00,Tuesday
12,3037159.523525519
588,1520537.9151464389
2,2, 1, 2, 0,15, 0.00,60.00,Tuesday
12,2995167.2112834418
588,899367.8677655838
2,2, 1, 2, 0,16, 0.00,60.00,Tuesday
12,4431884.673047379
588,1365185.1562318556
2,2, 1, 2, 0,17, 0.00,60.00,Tuesday
12,3808305.0521087639
588,1815968.8122645424
2,2, 1, 2, 0,18, 0.00,60.00,Tuesday
12,5019674.438059129
588,2194837.6865497727
2,2, 1, 2, 0,19, 0.00,60.00,Tuesday
12,5513134.015557166
588,3139525.581568061
2,2, 1, 2, 0,20, 0.00,60.00,Tuesday
12,6545891.848308248
588,3789315.5129336307
2,2, 1, 2, 0,21, 0.00,60.00,Tuesday
12,5125756.040629654
588,4759533.277124915
2,2, 1, 2, 0,22, 0.00,60.00,Tuesday
12,4786242.939445358
588,4742773.209728541
2,2, 1, 2, 0,23, 0.00,60.00,Tuesday
12,4114606.965171509
588,4659776.240178393
2,2, 1, 2, 0,24, 0.00,60.00,Tuesday
12,7535242.1397309829
588,5800151.965866606
2,3, 1, 3, 0, 1, 0.00,60.00,Wednesday
12,2057090.4529215804
588,6650164.004449882
2,3, 1, 3, 0, 2, 0.00,60.00,Wednesday
12,2144616.3098830117
588,7496077.409033042
2,3, 1, 3, 0, 3, 0.00,60.00,Wednesday
12,2076691.617049047
588,8105080.71723039
2,3, 1, 3, 0, 4, 0.00,60.00,Wednesday
12,3173060.1674136456
588,8858288.448115344
2,3, 1, 3, 0, 5, 0.00,60.00,Wednesday
12,1882792.7439534534
588,9425437.272879554
2,3, 1, 3, 0, 6, 0.00,60.00,Wednesday
12,2270568.3411818628
588,9723060.300337298
2,3, 1, 3, 0, 7, 0.00,60.00,Wednesday
12,3023915.772462146
588,9148096.786009396
2,3, 1, 3, 0, 8, 0.00,60.00,Wednesday
12,3584902.9226800964
588,9107473.31243989
2,3, 1, 3, 0, 9, 0.00,60.00,Wednesday
12,3297217.715576614
588,7188108.888650986
2,3, 1, 3, 0,10, 0.00,60.00,Wednesday
12,14650889.598104185
588,6482124.324938421
2,3, 1, 3, 0,11, 0.00,60.00,Wednesday
12,11743395.771204116
588,4574788.493288667
2,3, 1, 3, 0,12, 0.00,60.00,Wednesday
12,2997329.7562157858
588,3734059.6813643744
2,3, 1, 3, 0,13, 0.00,60.00,Wednesday
12,3115127.170600395
588,3786577.194099421
2,3, 1, 3, 0,14, 0.00,60.00,Wednesday
12,3175051.278986768
588,4527103.837717669
2,3, 1, 3, 0,15, 0.00,60.00,Wednesday
12,3230895.7142574319
588,3823432.4640721289
2,3, 1, 3, 0,16, 0.00,60.00,Wednesday
12,3329297.9070832657
588,4927231.093757848
2,3, 1, 3, 0,17, 0.00,60.00,Wednesday
12,3968727.167262738
588,5948211.645532068
2,3, 1, 3, 0,18, 0.00,60.00,Wednesday
12,6249327.47710034
588,6612790.813880115
2,3, 1, 3, 0,19, 0.00,60.00,Wednesday
12,6690821.1284547899
588,6571317.190891136
2,3, 1, 3, 0,20, 0.00,60.00,Wednesday
12,14597739.104107237
588,6855490.815162797
2,3, 1, 3, 0,21, 0.00,60.00,Wednesday
12,5448125.902789372
588,8406887.381113872
2,3, 1, 3, 0,22, 0.00,60.00,Wednesday
12,4839707.523653382
588,9622506.56580093
2,3, 1, 3, 0,23, 0.00,60.00,Wednesday
12,4238210.171772035
588,11145214.411364282
2,3, 1, 3, 0,24, 0.00,60.00,Wednesday
12,4386778.198658925
588,12564254.650433597
2,4, 1, 4, 0, 1, 0.00,60.00,Thursday
12,2423843.111355012
588,13895211.760522614
2,4, 1, 4, 0, 2, 0.00,60.00,Thursday
12,2305920.4300103366
588,15959675.778485528
2,4, 1, 4, 0, 3, 0.00,60.00,Thursday
12,2242992.057387647
588,16830835.11567972
2,4, 1, 4, 0, 4, 0.00,60.00,Thursday
12,2179448.933666673
588,16896177.27431281
2,4, 1, 4, 0, 5, 0.00,60.00,Thursday
12,3271450.019916162
588,17088489.259201044
2,4, 1, 4, 0, 6, 0.00,60.00,Thursday
12,2326379.3614005877
588,16907684.354468429
2,4, 1, 4, 0, 7, 0.00,60.00,Thursday
12,3156805.7533435749
588,16120810.344825089
2,4, 1, 4, 0, 8, 0.00,60.00,Thursday
12,4864460.73318476
588,14497881.731955536
2,4, 1, 4, 0, 9, 0.00,60.00,Thursday
12,12793920.3869124
588,13498908.476565704
2,4, 1, 4, 0,10, 0.00,60.00,Thursday
12,5017609.813265162
588,10934131.492850258
2,4, 1, 4, 0,11, 0.00,60.00,Thursday
12,3083760.272083299
588,9215386.841150888
2,4, 1, 4, 0,12, 0.00,60.00,Thursday
12,8495418.096515419
588,8675473.178981208
2,4, 1, 4, 0,13, 0.00,60.00,Thursday
12,3462104.5385101565
588,7301062.151060663
2,4, 1, 4, 0,14, 0.00,60.00,Thursday
12,3170553.6651357908
588,6529355.939553951
2,4, 1, 4, 0,15, 0.00,60.00,Thursday
12,3086569.3825726194
588,5695223.468210664
2,4, 1, 4, 0,16, 0.00,60.00,Thursday
12,4335256.848163721
588,6239492.662708823
2,4, 1, 4, 0,17, 0.00,60.00,Thursday
12,3882227.633716774
588,5659802.02880267
2,4, 1, 4, 0,18, 0.00,60.00,Thursday
12,5334434.44199401
588,5175423.552822163
2,4, 1, 4, 0,19, 0.00,60.00,Thursday
12,6411090.097400242
588,4922677.42579764
2,4, 1, 4, 0,20, 0.00,60.00,Thursday
12,7462129.388363734
588,4503025.266541645
2,4, 1, 4, 0,21, 0.00,60.00,Thursday
12,5459131.831458189
588,4745386.208349576
2,4, 1, 4, 0,22, 0.00,60.00,Thursday
12,4759472.950694596
588,4805909.633116738
2,4, 1, 4, 0,23, 0.00,60.00,Thursday
12,5326802.482965546
588,5285348.433358364
2,4, 1, 4, 0,24, 0.00,60.00,Thursday
12,2818584.5221648255
588,4991021.985602209
2,5, 1, 5, 0, 1, 0.00,60.00,Friday
12,2357269.577695993
588,6154969.306469042
2,5, 1, 5, 0, 2, 0.00,60.00,Friday
12,1923098.387628025
588,5317639.444627742
2,5, 1, 5, 0, 3, 0.00,60.00,Friday
12,1841605.2648786659
588,5214709.658882305
2,5, 1, 5, 0, 4, 0.00,60.00,Friday
12,1959675.883313926
588,5364724.58019152
2,5, 1, 5, 0, 5, 0.00,60.00,Friday
12,1882862.1909785283
588,5230668.119778589
2,5, 1, 5, 0, 6, 0.00,60.00,Friday
12,7222535.1739408909
588,5099475.702601586
2,5, 1, 5, 0, 7, 0.00,60.00,Friday
12,10559463.32570053
588,6495684.178856177
2,5, 1, 5, 0, 8, 0.00,60.00,Friday
12,3898171.343121201
588,4180442.262444314
2,5, 1, 5, 0, 9, 0.00,60.00,Friday
12,3142308.4711179349
588,3220934.712380527
2,5, 1, 5, 0,10, 0.00,60.00,Friday
12,2835907.1650010419
588,1351712.73555311
2,5, 1, 5, 0,11, 0.00,60.00,Friday
12,22995004.121721634
588,1767046.7613459544
2,5, 1, 5, 0,12, 0.00,60.00,Friday
12,8742849.240607
588,0.0
2,5, 1, 5, 0,13, 0.00,60.00,Friday
12,3644330.879041183
588,0.0
2,5, 1, 5, 0,14, 0.00,60.00,Friday
12,3987477.108120843
588,0.0
2,5, 1, 5, 0,15, 0.00,60.00,Friday
12,2896687.954585179
588,0.0
2,5, 1, 5, 0,16, 0.00,60.00,Friday
12,3235391.906166303
588,0.0
2,5, 1, 5, 0,17, 0.00,60.00,Friday
12,3855362.73242889
588,0.0
2,5, 1, 5, 0,18, 0.00,60.00,Friday
12,6717203.758642312
588,0.0
2,5, 1, 5, 0,19, 0.00,60.00,Friday
12,6027716.63266831
588,653604.4465032071
2,5, 1, 5, 0,20, 0.00,60.00,Friday
12,6921030.327718859
588,1265313.3395056397
2,5, 1, 5, 0,21, 0.00,60.00,Friday
12,6405982.779179713
588,2393697.1790317439
2,5, 1, 5, 0,22, 0.00,60.00,Friday
12,7729102.775131894
588,3038299.1901649658
2,5, 1, 5, 0,23, 0.00,60.00,Friday
12,3917528.741410211
588,3554097.9019703145
2,5, 1, 5, 0,24, 0.00,60.00,Friday
12,4204056.4538098559
588,4551269.714845132
2,6, 1, 6, 0, 1, 0.00,60.00,Saturday
12,2263143.8415823748
588,5353499.76229865
2,6, 1, 6, 0, 2, 0.00,60.00,Saturday
12,4379175.746758092
588,5768267.630574128
2,6, 1, 6, 0, 3, 0.00,60.00,Saturday
12,2145013.6699694327
588,6191183.389680771
2,6, 1, 6, 0, 4, 0.00,60.00,Saturday
12,1972273.9834074439
588,6988608.964766089
2,6, 1, 6, 0, 5, 0.00,60.00,Saturday
12,1926439.7093863595
588,7517172.726419605
2,6, 1, 6, 0, 6, 0.00,60.00,Saturday
12,18182393.84097719
588,8615621.914238055
2,6, 1, 6, 0, 7, 0.00,60.00,Saturday
12,2242217.653413755
588,8361686.074394329
2,6, 1, 6, 0, 8, 0.00,60.00,Saturday
12,3548535.6564631459
588,8462243.584576773
2,6, 1, 6, 0, 9, 0.00,60.00,Saturday
12,3302000.628122608
588,7439067.455571398
2,6, 1, 6, 0,10, 0.00,60.00,Saturday
12,5628990.124578863
588,6429336.470165053
2,6, 1, 6, 0,11, 0.00,60.00,Saturday
12,3001377.250559707
588,5029264.048986501
2,6, 1, 6, 0,12, 0.00,60.00,Saturday
12,5360013.598381612
588,3683842.218779587
2,6, 1, 6, 0,13, 0.00,60.00,Saturday
12,10068294.262546096
588,3664598.90114096
2,6, 1, 6, 0,14, 0.00,60.00,Saturday
12,5354432.166622523
588,3630159.2058985179
2,6, 1, 6, 0,15, 0.00,60.00,Saturday
12,3049115.226715877
588,3467484.755470828
2,6, 1, 6, 0,16, 0.00,60.00,Saturday
12,4478512.728945954
588,3570529.6619866716
2,6, 1, 6, 0,17, 0.00,60.00,Saturday
12,3874089.926993218
588,5284520.167924465
2,6, 1, 6, 0,18, 0.00,60.00,Saturday
12,6322347.104774386
588,5177547.756393018
2,6, 1, 6, 0,19, 0.00,60.00,Saturday
12,10621280.684845906
588,5781336.827086752
2,6, 1, 6, 0,20, 0.00,60.00,Saturday
12,6941581.171825541
588,6666979.814245559
2,6, 1, 6, 0,21, 0.00,60.00,Saturday
12,7951266.939585916
588,6915989.8057110109
2,6, 1, 6, 0,22, 0.00,60.00,Saturday
12,24960734.013447144
588,8486145.826655178
2,6, 1, 6, 0,23, 0.00,60.00,Saturday
12,3287618.5182391789
588,9328715.753296813
2,6, 1, 6, 0,24, 0.00,60.00,Saturday
12,4308162.638487461
588,10797805.84896801
2,7, 1, 7, 0, 1, 0.00,60.00,Sunday
12,2388812.209035632
588,11962838.813220602
2,7, 1, 7, 0, 2, 0.00,60.00,Sunday
12,2233178.9637600837
588,12142944.03808573
2,7, 1, 7, 0, 3, 0.00,60.00,Sunday
12,2185124.0209116556
588,13794509.578706345
2,7, 1, 7, 0, 4, 0.00,60.00,Sunday
12,4805113.045896982
588,15026473.641389937
2,7, 1, 7, 0, 5, 0.00,60.00,Sunday
12,12948772.416414883
588,16842516.51688457
2,7, 1, 7, 0, 6, 0.00,60.00,Sunday
12,2450374.7108594386
588,16554374.850637764
2,7, 1, 7, 0, 7, 0.00,60.00,Sunday
12,7685669.331469596
588,16694634.647023576
2,7, 1, 7, 0, 8, 0.00,60.00,Sunday
12,4490112.397286135
588,12552395.184846694
2,7, 1, 7, 0, 9, 0.00,60.00,Sunday
12,3300389.2900205624
588,11596754.346732663
2,7, 1, 7, 0,10, 0.00,60.00,Sunday
12,6174589.037264822
588,10831035.871562927
2,7, 1, 7, 0,11, 0.00,60.00,Sunday
12,4020668.7620855488
588,9762494.57268226
2,7, 1, 7, 0,12, 0.00,60.00,Sunday
12,3260873.658706554
588,8729592.710845055
2,7, 1, 7, 0,13, 0.00,60.00,Sunday
12,4597274.772121919
588,8184698.427495201
2,7, 1, 7, 0,14, 0.00,60.00,Sunday
12,3170263.1399305758
588,8024563.9413659
2,7, 1, 7, 0,15, 0.00,60.00,Sunday
12,3308317.44764104
588,7885736.984926653
2,7, 1, 7, 0,16, 0.00,60.00,Sunday
12,3385120.768061303
588,7856246.637681684
2,7, 1, 7, 0,17, 0.00,60.00,Sunday
12,9149468.377013304
588,7793827.43510923
2,7, 1, 7, 0,18, 0.00,60.00,Sunday
12,8197930.863634314
588,6882733.733241562
2,7, 1, 7, 0,19, 0.00,60.00,Sunday
12,5329357.691145823
588,6119611.389641666
2,7, 1, 7, 0,20, 0.00,60.00,Sunday
12,5455418.905820768
588,6202803.666922696
2,7, 1, 7, 0,21, 0.00,60.00,Sunday
12,5247185.703032838
588,6970335.760693885
2,7, 1, 7, 0,22, 0.00,60.00,Sunday
12,6038006.807318749
588,7794613.80339616
2,7, 1, 7, 0,23, 0.00,60.00,Sunday
12,4098408.165938467
588,8179568.195336436
2,7, 1, 7, 0,24, 0.00,60.00,Sunday
12,4311103.929461036
588,7910769.53202266
2,8, 1, 8, 0, 1, 0.00,60.00,Monday
12,2316596.5347906777
588,8315648.889081598
2,8, 1, 8, 0, 2, 0.00,60.00,Monday
12,2170469.0576787458
588,8852566.467819183
2,8, 1, 8, 0, 3, 0.00,60.00,Monday
12,2108704.0316296454
588,9784766.391921903
2,8, 1, 8, 0, 4, 0.00,60.00,Monday
12,2092503.798199517
588,12334181.547292386
2,8, 1, 8, 0, 5, 0.00,60.00,Monday
12,2025112.1827868173
588,12694499.779955218
2,8, 1, 8, 0, 6, 0.00,60.00,Monday
12,2307045.0444581669
588,11636986.405440107
2,8, 1, 8, 0, 7, 0.00,60.00,Monday
12,3077805.017282493
588,11975655.835539548
2,8, 1, 8, 0, 8, 0.00,60.00,Monday
12,4759487.350204432
588,10455709.884094298
2,8, 1, 8, 0, 9, 0.00,60.00,Monday
12,9093790.938029185
588,8070712.643843416
2,8, 1, 8, 0,10, 0.00,60.00,Monday
12,2778320.4449111779
588,5545300.583477817
2,8, 1, 8, 0,11, 0.00,60.00,Monday
12,3167347.7665088914
588,4525557.274783458
2,8, 1, 8, 0,12, 0.00,60.00,Monday
12,4367654.537298769
588,3434253.4147288
2,8, 1, 8, 0,13, 0.00,60.00,Monday
12,4049891.322905829
588,1969098.7940947619
2,8, 1, 8, 0,14, 0.00,60.00,Monday
12,2835818.933341522
588,564459.0503617558
2,8, 1, 8, 0,15, 0.00,60.00,Monday
12,3165092.4545277368
588,370747.18043963509
2,8, 1, 8, 0,16, 0.00,60.00,Monday
12,5800528.806427425
588,0.0
2,8, 1, 8, 0,17, 0.00,60.00,Monday
12,3835451.5957960027
588,1520468.8019333506
2,8, 1, 8, 0,18, 0.00,60.00,Monday
12,6255362.632820232
588,3320883.359777337
2,8, 1, 8, 0,19, 0.00,60.00,Monday
12,12928293.02667411
588,4531870.879347625
2,8, 1, 8, 0,20, 0.00,60.00,Monday
12,4918651.726136066
588,5400450.108935797
2,8, 1, 8, 0,21, 0.00,60.00,Monday
12,5211592.967860351
588,5102791.304095844
2,8, 1, 8, 0,22, 0.00,60.00,Monday
12,5981587.100281043
588,6131121.985268398
2,8, 1, 8, 0,23, 0.00,60.00,Monday
12,4061518.95973079
588,6153513.758415647
2,8, 1, 8, 0,24, 0.00,60.00,Monday
12,3135965.806893654
588,7805224.199517128
2,9, 1, 9, 0, 1, 0.00,60.00,Tuesday
12,2413658.1267535479
588,9113666.402876731
2,9, 1, 9, 0, 2, 0.00,60.00,Tuesday
12,3315783.547423261
588,9648484.159764104
2,9, 1, 9, 0, 3, 0.00,60.00,Tuesday
12,2037031.7751260782
588,10161569.881178158
2,9, 1, 9, 0, 4, 0.00,60.00,Tuesday
12,2059797.6995533119
588,10618098.393590702
2,9, 1, 9, 0, 5, 0.00,60.00,Tuesday
12,1990052.804400315
588,10854940.45864467
2,9, 1, 9, 0, 6, 0.00,60.00,Tuesday
12,2297320.331191096
588,11126732.437434795
2,9, 1, 9, 0, 7, 0.00,60.00,Tuesday
12,3060184.745431107
588,11051123.318992636
2,9, 1, 9, 0, 8, 0.00,60.00,Tuesday
12,4768884.819547742
588,9541968.570149959
2,9, 1, 9, 0, 9, 0.00,60.00,Tuesday
12,3224019.694204365
588,7651633.685642015
2,9, 1, 9, 0,10, 0.00,60.00,Tuesday
12,4342699.093370595
588,6125266.292651688
2,9, 1, 9, 0,11, 0.00,60.00,Tuesday
12,4286560.321358132
588,4876016.599799002
2,9, 1, 9, 0,12, 0.00,60.00,Tuesday
12,3154194.4135494206
588,4001494.4837609219
2,9, 1, 9, 0,13, 0.00,60.00,Tuesday
12,4295654.220344964
588,3575117.297694809
2,9, 1, 9, 0,14, 0.00,60.00,Tuesday
12,3064527.159451161
588,2957511.4718456745
2,9, 1, 9, 0,15, 0.00,60.00,Tuesday
12,3197895.7219150646
588,2091928.760630815
2,9, 1, 9, 0,16, 0.00,60.00,Tuesday
12,3843844.212002924
588,1968910.3063053606
2,9, 1, 9, 0,17, 0.00,60.00,Tuesday
12,4450327.334376499
588,2942708.229262616
2,9, 1, 9, 0,18, 0.00,60.00,Tuesday
12,5011136.73835552
588,3865531.159039122
2,9, 1, 9, 0,19, 0.00,60.00,Tuesday
12,5537649.228233207
588,4425834.411546754
2,9, 1, 9, 0,20, 0.00,60.00,Tuesday
12,5424094.583557128
588,4559222.0731885689
2,9, 1, 9, 0,21, 0.00,60.00,Tuesday
12,5224739.132892487
588,5792568.235042849
2,9, 1, 9, 0,22, 0.00,60.00,Tuesday
12,4820265.464930392
588,6527929.044511244
2,9, 1, 9, 0,23, 0.00,60.00,Tuesday
12,5298774.265134942
588,7494718.763547589
2,9, 1, 9, 0,24, 0.00,60.00,Tuesday
12,7537915.591908538
588,9370476.7554977
2,10, 1,10, 0, 1, 0.00,60.00,Wednesday
12,2122235.688524293
588,10117677.140793637
2,10, 1,10, 0, 2, 0.00,60.00,Wednesday
12,2208053.631332794
588,10824622.333744245
2,10, 1,10, 0, 3, 0.00,60.00,Wednesday
12,2132941.9594737675
588,11056526.136300968
2,10, 1,10, 0, 4, 0.00,60.00,Wednesday
12,2089673.1993010813
588,12185660.528719115
2,10, 1,10, 0, 5, 0.00,60.00,Wednesday
12,2025762.2016858957
588,12728606.155477502
2,10, 1,10, 0, 6, 0.00,60.00,Wednesday
12,3464368.440499299
588,13062902.980582394
2,10, 1,10, 0, 7, 0.00,60.00,Wednesday
12,3006463.733902295
588,12369832.841279842
2,10, 1,10, 0, 8, 0.00,60.00,Wednesday
12,3637608.7743711608
588,11872939.935865159
2,10, 1,10, 0, 9, 0.00,60.00,Wednesday
12,3341423.486702646
588,9507577.803191722
2,10, 1,10, 0,10, 0.00,60.00,Wednesday
12,14902778.31734007
588,7716579.256785378
2,10, 1,10, 0,11, 0.00,60.00,Wednesday
12,11344333.431025899
588,5687891.71907532
2,10, 1,10, 0,12, 0.00,60.00,Wednesday
12,3301905.9164014135
588,3269169.8623021997
2,10, 1,10, 0,13, 0.00,60.00,Wednesday
12,3054871.5640163004
588,1669174.4841345363
2,10, 1,10, 0,14, 0.00,60.00,Wednesday
12,3108101.1646158176
588,1014243.2959202369
2,10, 1,10, 0,15, 0.00,60.00,Wednesday
12,3163337.138844957
588,278646.08011484457
2,10, 1,10, 0,16, 0.00,60.00,Wednesday
12,3240509.2481980135
588,268506.02229704798
2,10, 1,10, 0,17, 0.00,60.00,Wednesday
12,3887069.342874156
588,1663640.1863361607
2,10, 1,10, 0,18, 0.00,60.00,Wednesday
12,6184782.433419153
588,3215548.274803181
2,10, 1,10, 0,19, 0.00,60.00,Wednesday
12,6644907.803072529
588,4118469.780932733
2,10, 1,10, 0,20, 0.00,60.00,Wednesday
12,14729043.504758798
588,4319196.084018675
2,10, 1,10, 0,21, 0.00,60.00,Wednesday
12,5257736.019311604
588,4817910.824139808
2,10, 1,10, 0,22, 0.00,60.00,Wednesday
12,4785215.459942713
588,6362621.158914988
2,10, 1,10, 0,23, 0.00,60.00,Wednesday
12,4164690.670075996
588,7287659.290103957
2,10, 1,10, 0,24, 0.00,60.00,Wednesday
12,4334295.135826584
588,9789655.294259202
2,11, 1,11, 0, 1, 0.00,60.00,Thursday
12,2355135.7619739526
588,10291602.253853722
2,11, 1,11, 0, 2, 0.00,60.00,Thursday
12,2215494.2499662528
588,11215030.264329968
2,11, 1,11, 0, 3, 0.00,60.00,Thursday
12,2136423.2779224899
588,11239190.293440264
2,11, 1,11, 0, 4, 0.00,60.00,Thursday
12,2087221.0446730718
588,12056996.413413914
2,11, 1,11, 0, 5, 0.00,60.00,Thursday
12,3185693.457068265
588,12566309.442094405
2,11, 1,11, 0, 6, 0.00,60.00,Thursday
12,2235671.2238718646
588,12149817.841950324
2,11, 1,11, 0, 7, 0.00,60.00,Thursday
12,3075645.5764352476
588,11862350.360023806
2,11, 1,11, 0, 8, 0.00,60.00,Thursday
12,4808472.673916969
588,11528248.491662993
2,11, 1,11, 0, 9, 0.00,60.00,Thursday
12,12943034.675844908
588,11252105.34984527
2,11, 1,11, 0,10, 0.00,60.00,Thursday
12,4917266.172847986
588,7945397.422096051
2,11, 1,11, 0,11, 0.00,60.00,Thursday
12,3002917.431641225
588,4863792.932700723
2,11, 1,11, 0,12, 0.00,60.00,Thursday
12,8677695.052655608
588,3333373.302565068
2,11, 1,11, 0,13, 0.00,60.00,Thursday
12,2965569.821348121
588,2120482.3351295345
2,11, 1,11, 0,14, 0.00,60.00,Thursday
12,2906378.0439270834
588,1387881.9481031458
2,11, 1,11, 0,15, 0.00,60.00,Thursday
12,3007877.4715723705
588,1566272.9547018479
2,11, 1,11, 0,16, 0.00,60.00,Thursday
12,4256092.842086738
588,2064661.2500763343
2,11, 1,11, 0,17, 0.00,60.00,Thursday
12,3822510.371169285
588,2527920.8482017468
2,11, 1,11, 0,18, 0.00,60.00,Thursday
12,5977808.933332427
588,2362500.6166556437
2,11, 1,11, 0,19, 0.00,60.00,Thursday
12,5630062.029582863
588,2118736.273228037
2,11, 1,11, 0,20, 0.00,60.00,Thursday
12,7735036.887561573
588,2900048.4899722558
2,11, 1,11, 0,21, 0.00,60.00,Thursday
12,5194138.6036926549
588,3466025.706517833
2,11, 1,11, 0,22, 0.00,60.00,Thursday
12,4746333.376431065
588,3301023.35720348
2,11, 1,11, 0,23, 0.00,60.00,Thursday
12,5305968.110037825
588,4143147.182818595
2,11, 1,11, 0,24, 0.00,60.00,Thursday
12,2998376.0762435218
588,4983505.514416211
2,12, 1,12, 0, 1, 0.00,60.00,Friday
12,2353664.4275679907
588,5965807.723237903
2,12, 1,12, 0, 2, 0.00,60.00,Friday
12,2138564.7487290909
588,7178553.076272443
2,12, 1,12, 0, 3, 0.00,60.00,Friday
12,2074015.0684085049
588,7964642.688170926
2,12, 1,12, 0, 4, 0.00,60.00,Friday
12,2038078.8324024538
588,9478513.313809369
2,12, 1,12, 0, 5, 0.00,60.00,Friday
12,1982588.5869758649
588,10463294.303711065
2,12, 1,12, 0, 6, 0.00,60.00,Friday
12,7342356.970184507
588,10962877.247560937
2,12, 1,12, 0, 7, 0.00,60.00,Friday
12,10733619.756010997
588,11817045.099309313
2,12, 1,12, 0, 8, 0.00,60.00,Friday
12,4202143.488318715
588,10947585.47089897
2,12, 1,12, 0, 9, 0.00,60.00,Friday
12,3270214.721346951
588,9932572.193519859
2,12, 1,12, 0,10, 0.00,60.00,Friday
12,3162813.4034216555
588,9059856.823736739
2,12, 1,12, 0,11, 0.00,60.00,Friday
12,23361374.888680255
588,8631912.114023608
2,12, 1,12, 0,12, 0.00,60.00,Friday
12,9347434.383388792
588,6839369.495765055
2,12, 1,12, 0,13, 0.00,60.00,Friday
12,3932391.2058376867
588,6669646.319485306
2,12, 1,12, 0,14, 0.00,60.00,Friday
12,4290452.881784029
588,6432799.65232622
2,12, 1,12, 0,15, 0.00,60.00,Friday
12,3195550.800158478
588,6238534.123112587
2,12, 1,12, 0,16, 0.00,60.00,Friday
12,3349377.6045866527
588,5980809.23493997
2,12, 1,12, 0,17, 0.00,60.00,Friday
12,3987915.8617378019
588,6955039.016977217
2,12, 1,12, 0,18, 0.00,60.00,Friday
12,7431767.707799597
588,7114639.535481234
2,12, 1,12, 0,19, 0.00,60.00,Friday
12,5561912.052701881
588,6591265.307710353
2,12, 1,12, 0,20, 0.00,60.00,Friday
12,7056641.088476769
588,6355525.528025384
2,12, 1,12, 0,21, 0.00,60.00,Friday
12,6500418.395873175
588,7314770.048579962
2,12, 1,12, 0,22, 0.00,60.00,Friday
12,7826038.3988775429
588,7985400.603306146
2,12, 1,12, 0,23, 0.00,60.00,Friday
12,4015747.8699680219
588,8717526.45188862
2,12, 1,12, 0,24, 0.00,60.00,Friday
12,4292552.363334581
588,9192125.604601067
2,13, 1,13, 0, 1, 0.00,60.00,Saturday
12,2333862.998119667
588,9064296.310991008
2,13, 1,13, 0, 2, 0.00,60.00,Saturday
12,4734506.340676236
588,8467224.10279931
2,13, 1,13, 0, 3, 0.00,60.00,Saturday
12,1911074.0114108949
588,8828916.968669495
2,13, 1,13, 0, 4, 0.00,60.00,Saturday
12,2021618.1073964905
588,8614822.013112842
2,13, 1,13, 0, 5, 0.00,60.00,Saturday
12,1946139.10537029
588,8550796.514808817
2,13, 1,13, 0, 6, 0.00,60.00,Saturday
12,18314463.321304304
588,9653896.326973904
2,13, 1,13, 0, 7, 0.00,60.00,Saturday
12,2383266.376097937
588,9154049.633833588
2,13, 1,13, 0, 8, 0.00,60.00,Saturday
12,3532319.78177491
588,8101170.6507944329
2,13, 1,13, 0, 9, 0.00,60.00,Saturday
12,3264566.981196297
588,5474930.688090779
2,13, 1,13, 0,10, 0.00,60.00,Saturday
12,5580048.743154382
588,3685428.986103473
2,13, 1,13, 0,11, 0.00,60.00,Saturday
12,2945678.407652359
588,2119033.096971595
2,13, 1,13, 0,12, 0.00,60.00,Saturday
12,5303410.421275205
588,666868.8879488629
2,13, 1,13, 0,13, 0.00,60.00,Saturday
12,9831453.62599307
588,0.0
2,13, 1,13, 0,14, 0.00,60.00,Saturday
12,5287526.094091864
588,0.0
2,13, 1,13, 0,15, 0.00,60.00,Saturday
12,2982807.2579929677
588,0.0
2,13, 1,13, 0,16, 0.00,60.00,Saturday
12,4410984.528788238
588,0.0
2,13, 1,13, 0,17, 0.00,60.00,Saturday
12,3773338.153543122
588,0.0
2,13, 1,13, 0,18, 0.00,60.00,Saturday
12,6225393.11026459
588,0.0
2,13, 1,13, 0,19, 0.00,60.00,Saturday
12,11129657.745026984
588,295359.6063951851
2,13, 1,13, 0,20, 0.00,60.00,Saturday
12,6299339.644752977
588,296517.86279845426
2,13, 1,13, 0,21, 0.00,60.00,Saturday
12,8367514.479730747
588,821673.7902415446
2,13, 1,13, 0,22, 0.00,60.00,Saturday
12,24778844.057528356
588,2298680.4117716827
2,13, 1,13, 0,23, 0.00,60.00,Saturday
12,2902793.6222709699
588,3460808.297665079
2,13, 1,13, 0,24, 0.00,60.00,Saturday
12,4199559.097985664
588,4087168.2314837349
2,14, 1,14, 0, 1, 0.00,60.00,Sunday
12,2239210.508450159
588,4113639.076533709
2,14, 1,14, 0, 2, 0.00,60.00,Sunday
12,2073684.0257900889
588,3774273.133255579
2,14, 1,14, 0, 3, 0.00,60.00,Sunday
12,2003962.6838473562
588,4289006.583649875
2,14, 1,14, 0, 4, 0.00,60.00,Sunday
12,4615094.480516288
588,4756422.332293617
2,14, 1,14, 0, 5, 0.00,60.00,Sunday
12,13014235.035844334
588,5696629.120615459
2,14, 1,14, 0, 6, 0.00,60.00,Sunday
12,2167928.6248781357
588,5314350.350288917
2,14, 1,14, 0, 7, 0.00,60.00,Sunday
12,7500615.528366134
588,5824434.957481267
2,14, 1,14, 0, 8, 0.00,60.00,Sunday
12,4354190.699715827
588,5471183.908488051
2,14, 1,14, 0, 9, 0.00,60.00,Sunday
12,3162922.11914437
588,4385127.113522231
2,14, 1,14, 0,10, 0.00,60.00,Sunday
12,6282584.365099232
588,3258351.57324041
2,14, 1,14, 0,11, 0.00,60.00,Sunday
12,3316295.215341961
588,1978998.6041566344
2,14, 1,14, 0,12, 0.00,60.00,Sunday
12,2939255.885782064
588,32723.19286742467
2,14, 1,14, 0,13, 0.00,60.00,Sunday
12,4262089.816925471
588,0.0
2,14, 1,14, 0,14, 0.00,60.00,Sunday
12,2837270.3115673989
588,0.0
2,14, 1,14, 0,15, 0.00,60.00,Sunday
12,2978026.541765814
588,0.0
2,14, 1,14, 0,16, 0.00,60.00,Sunday
12,3066115.7896008498
588,562680.2482117814
2,14, 1,14, 0,17, 0.00,60.00,Sunday
12,9068777.666105815
588,1413200.792433547
2,14, 1,14, 0,18, 0.00,60.00,Sunday
12,7908948.4560843859
588,1308159.3885383157
2,14, 1,14, 0,19, 0.00,60.00,Sunday
12,5255611.478539264
588,1637587.889765041
2,14, 1,14, 0,20, 0.00,60.00,Sunday
12,5380042.7801326499
588,2247831.816445199
2,14, 1,14, 0,21, 0.00,60.00,Sunday
12,5178099.118938455
588,3345375.034143873
2,14, 1,14, 0,22, 0.00,60.00,Sunday
12,5970533.154685227
588,4210622.595389265
2,14, 1,14, 0,23, 0.00,60.00,Sunday
12,4035207.3022760159
588,4866476.505326504
2,14, 1,14, 0,24, 0.00,60.00,Sunday
12,4279678.08842583
588,6233842.960255013
2,15, 1,15, 0, 1, 0.00,60.00,Monday
12,2289326.8648125275
588,6886769.096691312
2,15, 1,15, 0, 2, 0.00,60.00,Monday
12,2147311.3664357208
588,7637486.54493786
2,15, 1,15, 0, 3, 0.00,60.00,Monday
12,2076432.1125217283
588,8091464.561037072
2,15, 1,15, 0, 4, 0.00,60.00,Monday
12,2025993.232407196
588,8844384.040899426
2,15, 1,15, 0, 5, 0.00,60.00,Monday
12,1960295.7845517924
588,9293594.942665758
2,15, 1,15, 0, 6, 0.00,60.00,Monday
12,2260678.689398639
588,9204152.037852273
2,15, 1,15, 0, 7, 0.00,60.00,Monday
12,3041364.0435361659
588,10063604.452492252
2,15, 1,15, 0, 8, 0.00,60.00,Monday
12,4737131.600201137
588,9270723.264302444