Program Version,EnergyPlus, Version 9.2.0-921312fa1d, YMD=2019.10.18 18:59
1,5,Environment Title[],Latitude[deg],Longitude[deg],Time Zone[],Elevation[m]
2,8,Day of Simulation[],Month[],Day of Month[],DST Indicator[1=yes 0=no],Hour[],StartMinute[],EndMinute[],DayType
3,5,Cumulative Day of Simulation[],Month[],Day of Month[],DST Indicator[1=yes 0=no],DayType  ! When Daily Meters Requested
4,2,Cumulative Days of Simulation[],Month[]  ! When Monthly Meters Requested
5,1,Cumulative Days of Simulation[] ! When Run Period Meters Requested
6,1,Calendar Year of Simulation[] ! When Annual Meters Requested
12,1,Electricity:Facility [J] !Hourly
588,1,Gas:Facility [J] !Hourly
End of Data Dictionary
1,RUN PERIOD 1,  39.83,-104.65,  -7.00,1650.00
2,1, 1, 1, 0, 1, 0.00,60.00,Monday
12,2239964.636576143
588,0.0
2,1, 1, 1, 0, 2, 0.00,60.00,Monday
12,2001751.7600675864
588,0.0
2,1, 1, 1, 0, 3, 0.00,60.00,Monday
12,1933612.6059353396
588,597750.5621855278
2,1, 1, 1, 0, 4, 0.00,60.00,Monday
12,1897846.188002884
588,2120531.511811039
2,1, 1, 1, 0, 5, 0.00,60.00,Monday
12,1840526.9337497417
588,3009344.7352978957
2,1, 1, 1, 0, 6, 0.00,60.00,Monday
12,2147503.881543511
588,3265890.0860207325
2,1, 1, 1, 0, 7, 0.00,60.00,Monday
12,2912637.4047561099
588,3309340.7100410896
2,1, 1, 1, 0, 8, 0.00,60.00,Monday
12,3470738.817036345
588,3117303.0823567809
2,1, 1, 1, 0, 9, 0.00,60.00,Monday
12,10580175.03669724
588,2843920.9332988255
2,1, 1, 1, 0,10, 0.00,60.00,Monday
12,2595355.529322201
588,1457998.8421257537
2,1, 1, 1, 0,11, 0.00,60.00,Monday
12,3082424.833552828
588,69666.15229561746
2,1, 1, 1, 0,12, 0.00,60.00,Monday
12,3161572.65134888
588,0.0
2,1, 1, 1, 0,13, 0.00,60.00,Monday
12,4273413.599644172
588,99162.57019710867
2,1, 1, 1, 0,14, 0.00,60.00,Monday
12,3020763.666952822
588,822354.1409367093
2,1, 1, 1, 0,15, 0.00,60.00,Monday
12,4341977.71668949
588,732892.1574061042
2,1, 1, 1, 0,16, 0.00,60.00,Monday
12,4640826.888897001
588,970456.4680465172
2,1, 1, 1, 0,17, 0.00,60.00,Monday
12,3804113.444867885
588,1759584.8779367882
2,1, 1, 1, 0,18, 0.00,60.00,Monday
12,6257217.328039279
588,3019633.0947968626
2,1, 1, 1, 0,19, 0.00,60.00,Monday
12,13284378.331879572
588,4183289.231685037
2,1, 1, 1, 0,20, 0.00,60.00,Monday
12,5760987.32543065
588,4310856.67866338
2,1, 1, 1, 0,21, 0.00,60.00,Monday
12,5131941.880921945
588,4175956.5604981675
2,1, 1, 1, 0,22, 0.00,60.00,Monday
12,4781875.122262993
588,4513594.6223895759
2,1, 1, 1, 0,23, 0.00,60.00,Monday
12,5264186.466439703
588,5153263.244311041
2,1, 1, 1, 0,24, 0.00,60.00,Monday
12,3039901.21942841
588,6938882.024996154
2,2, 1, 2, 0, 1, 0.00,60.00,Tuesday
12,2385183.402268858
588,7619602.695582736
2,2, 1, 2, 0, 2, 0.00,60.00,Tuesday
12,2145807.4583069819
588,7558576.754064861
2,2, 1, 2, 0, 3, 0.00,60.00,Tuesday
12,2066849.834641239
588,7588684.152322565
2,2, 1, 2, 0, 4, 0.00,60.00,Tuesday
12,2015076.2038056299
588,8271569.500275494
2,2, 1, 2, 0, 5, 0.00,60.00,Tuesday
12,1923838.9246002204
588,7380710.0132670369
2,2, 1, 2, 0, 6, 0.00,60.00,Tuesday
12,2226770.0568047414
588,7424972.142722859
2,2, 1, 2, 0, 7, 0.00,60.00,Tuesday
12,2978193.1738360107
588,6749040.203487954
2,2, 1, 2, 0, 8, 0.00,60.00,Tuesday
12,4698657.38087563
588,5880107.844635882
2,2, 1, 2, 0, 9, 0.00,60.00,Tuesday
12,3185069.2678281518
588,5606309.753681875
2,2, 1, 2, 0,10, 0.00,60.00,Tuesday
12,4303280.967629334
588,4097345.597797472
2,2, 1, 2, 0,11, 0.00,60.00,Tuesday
12,4240922.494547115
588,2506497.9939040786
2,2, 1, 2, 0,12, 0.00,60.00,Tuesday
12,3103674.0010715459
588,1348750.468550879
2,2, 1, 2, 0,13, 0.00,60.00,Tuesday
12,4246341.731336659
588,1002011.9387782081
2,2, 1, 2, 0,14, 0.00,60.00,Tuesday
12,3027695.240745557
588,1023948.6768740843
2,2, 1, 2, 0,15, 0.00,60.00,Tuesday
12,2991054.5369652758
588,683576.5809351939
2,2, 1, 2, 0,16, 0.00,60.00,Tuesday
12,4429645.901710815
588,1247715.4529571704
2,2, 1, 2, 0,17, 0.00,60.00,Tuesday
12,3803888.409646388
588,1584228.494783813
2,2, 1, 2, 0,18, 0.00,60.00,Tuesday
12,5013789.936982992
588,1886078.9662286705
2,2, 1, 2, 0,19, 0.00,60.00,Tuesday
12,5505179.592496561
588,2722158.4244704667
2,2, 1, 2, 0,20, 0.00,60.00,Tuesday
12,6535878.529983485
588,3263920.726794136
2,2, 1, 2, 0,21, 0.00,60.00,Tuesday
12,5113080.861071775
588,4094468.713750133
2,2, 1, 2, 0,22, 0.00,60.00,Tuesday
12,4771177.966558992
588,3952316.7734251928
2,2, 1, 2, 0,23, 0.00,60.00,Tuesday
12,4097241.314950381
588,3748603.6750882675
2,2, 1, 2, 0,24, 0.00,60.00,Tuesday
12,7514307.3766423859
588,4701716.46081498
2,3, 1, 3, 0, 1, 0.00,60.00,Wednesday
12,2032504.2318895818
588,5360128.836258146
2,3, 1, 3, 0, 2, 0.00,60.00,Wednesday
12,2116595.0879379597
588,6025808.898985052
2,3, 1, 3, 0, 3, 0.00,60.00,Wednesday
12,2045514.1593743829
588,6469205.082245542
2,3, 1, 3, 0, 4, 0.00,60.00,Wednesday
12,3138811.555232161
588,7061270.602561996
2,3, 1, 3, 0, 5, 0.00,60.00,Wednesday
12,1845845.8782073833
588,7486841.776889381
2,3, 1, 3, 0, 6, 0.00,60.00,Wednesday
12,2231631.754158416
588,7680064.534428987
2,3, 1, 3, 0, 7, 0.00,60.00,Wednesday
12,2984053.316238178
588,7056520.82853704
2,3, 1, 3, 0, 8, 0.00,60.00,Wednesday
12,3545019.144561257
588,7014778.598952366
2,3, 1, 3, 0, 9, 0.00,60.00,Wednesday
12,3262566.6500847095
588,5369973.67198336
2,3, 1, 3, 0,10, 0.00,60.00,Wednesday
12,14623588.534606824
588,5049719.319469843
2,3, 1, 3, 0,11, 0.00,60.00,Wednesday
12,11727132.34957913
588,3728814.7865439394
2,3, 1, 3, 0,12, 0.00,60.00,Wednesday
12,2991299.3639204676
588,3412897.4973592318
2,3, 1, 3, 0,13, 0.00,60.00,Wednesday
12,3115754.0894682437
588,3819766.9559271817
2,3, 1, 3, 0,14, 0.00,60.00,Wednesday
12,3180513.684710767
588,4813715.290310678
2,3, 1, 3, 0,15, 0.00,60.00,Wednesday
12,3239627.752844535
588,4281600.968940247
2,3, 1, 3, 0,16, 0.00,60.00,Wednesday
12,3335647.66226244
588,5260401.613757353
2,3, 1, 3, 0,17, 0.00,60.00,Wednesday
12,3968855.748647585
588,5954958.287826579
2,3, 1, 3, 0,18, 0.00,60.00,Wednesday
12,6248534.615710378
588,6571189.559755693
2,3, 1, 3, 0,19, 0.00,60.00,Wednesday
12,6686442.827335162
588,6341588.473185995
2,3, 1, 3, 0,20, 0.00,60.00,Wednesday
12,14589980.3205592
588,6448803.395889024
2,3, 1, 3, 0,21, 0.00,60.00,Wednesday
12,5435981.918968328
588,7769375.33551982
2,3, 1, 3, 0,22, 0.00,60.00,Wednesday
12,4822681.904805869
588,8729195.652284107
2,3, 1, 3, 0,23, 0.00,60.00,Wednesday
12,4215904.82785029
588,9974857.000176408
2,3, 1, 3, 0,24, 0.00,60.00,Wednesday
12,4359020.621352099
588,11107819.529490035
2,4, 1, 4, 0, 1, 0.00,60.00,Thursday
12,2390779.448750046
588,12160367.289634401
2,4, 1, 4, 0, 2, 0.00,60.00,Thursday
12,2267173.2520385759
588,13926618.271685208
2,4, 1, 4, 0, 3, 0.00,60.00,Thursday
12,2199280.8911391829
588,14537318.030714089
2,4, 1, 4, 0, 4, 0.00,60.00,Thursday
12,2131649.2049083786
588,14388134.044793088
2,4, 1, 4, 0, 5, 0.00,60.00,Thursday
12,3220137.787688939
588,14396145.600896147
2,4, 1, 4, 0, 6, 0.00,60.00,Thursday
12,2272344.7668280487
588,14072498.82934911
2,4, 1, 4, 0, 7, 0.00,60.00,Thursday
12,3101283.0944845785
588,13207546.352462488
2,4, 1, 4, 0, 8, 0.00,60.00,Thursday
12,4811625.634047646
588,11725633.517887125
2,4, 1, 4, 0, 9, 0.00,60.00,Thursday
12,12745393.494838985
588,10952713.990348079
2,4, 1, 4, 0,10, 0.00,60.00,Thursday
12,4975121.247243768
588,8704762.265131068
2,4, 1, 4, 0,11, 0.00,60.00,Thursday
12,3044601.3072451415
588,7160723.059723755
2,4, 1, 4, 0,12, 0.00,60.00,Thursday
12,8459074.283421675
588,6768517.3205327349
2,4, 1, 4, 0,13, 0.00,60.00,Thursday
12,3429167.6736300729
588,5572872.688495706
2,4, 1, 4, 0,14, 0.00,60.00,Thursday
12,3140365.740894617
588,4945400.822775055
2,4, 1, 4, 0,15, 0.00,60.00,Thursday
12,3059721.786222158
588,4286534.883467027
2,4, 1, 4, 0,16, 0.00,60.00,Thursday
12,4309859.529480653
588,4906899.876122357
2,4, 1, 4, 0,17, 0.00,60.00,Thursday
12,3857999.7202110828
588,4388567.73580871
2,4, 1, 4, 0,18, 0.00,60.00,Thursday
12,5310383.798241752
588,3913452.245834696
2,4, 1, 4, 0,19, 0.00,60.00,Thursday
12,6387472.830471432
588,3683523.689301747
2,4, 1, 4, 0,20, 0.00,60.00,Thursday
12,7439452.300760969
588,3313151.404416759
2,4, 1, 4, 0,21, 0.00,60.00,Thursday
12,5436844.152357987
588,3575963.725360961
2,4, 1, 4, 0,22, 0.00,60.00,Thursday
12,4737257.28729178
588,3640257.2219690966
2,4, 1, 4, 0,23, 0.00,60.00,Thursday
12,5304137.901929165
588,4096141.889541756
2,4, 1, 4, 0,24, 0.00,60.00,Thursday
12,2796217.538104885
588,3817430.329145721
2,5, 1, 5, 0, 1, 0.00,60.00,Friday
12,2333727.6994885129
588,4919731.162189764
2,5, 1, 5, 0, 2, 0.00,60.00,Friday
12,1899947.101726404
588,4102895.6088657008
2,5, 1, 5, 0, 3, 0.00,60.00,Friday
12,1818857.048319902
588,4021114.7995400249
2,5, 1, 5, 0, 4, 0.00,60.00,Friday
12,1936866.2010278595
588,4167904.6251172379
2,5, 1, 5, 0, 5, 0.00,60.00,Friday
12,1860039.6835554338
588,4033175.2320553918
2,5, 1, 5, 0, 6, 0.00,60.00,Friday
12,7199977.21799932
588,3915863.69066315
2,5, 1, 5, 0, 7, 0.00,60.00,Friday
12,10535926.619447973
588,5260717.100456669
2,5, 1, 5, 0, 8, 0.00,60.00,Friday
12,3879225.974155434
588,3186382.03977594
2,5, 1, 5, 0, 9, 0.00,60.00,Friday
12,3135679.4077348809
588,2873108.9491199047
2,5, 1, 5, 0,10, 0.00,60.00,Friday
12,2841680.1645567577
588,1654620.9910151389
2,5, 1, 5, 0,11, 0.00,60.00,Friday
12,23005433.17491342
588,2314254.7517346867
2,5, 1, 5, 0,12, 0.00,60.00,Friday
12,8750580.871090809
588,405676.9940713364
2,5, 1, 5, 0,13, 0.00,60.00,Friday
12,3644814.2147641975
588,24275.565038163735
2,5, 1, 5, 0,14, 0.00,60.00,Friday
12,3988364.458826506
588,44341.613208134484
2,5, 1, 5, 0,15, 0.00,60.00,Friday
12,2907370.978566187
588,560696.3650048497
2,5, 1, 5, 0,16, 0.00,60.00,Friday
12,3256356.4010435787
588,1100003.3013393847
2,5, 1, 5, 0,17, 0.00,60.00,Friday
12,3895547.155845833
588,2108469.518575003
2,5, 1, 5, 0,18, 0.00,60.00,Friday
12,6804470.376061767
588,2222458.1320028749
2,5, 1, 5, 0,19, 0.00,60.00,Friday
12,6020320.231175784
588,2632659.380673213
2,5, 1, 5, 0,20, 0.00,60.00,Friday
12,6956440.392001519
588,2969529.045278367
2,5, 1, 5, 0,21, 0.00,60.00,Friday
12,6433054.766003841
588,3814116.664218878
2,5, 1, 5, 0,22, 0.00,60.00,Friday
12,7751982.095520926
588,4238680.847550308
2,5, 1, 5, 0,23, 0.00,60.00,Friday
12,3937445.0555788867
588,4599110.008117848
2,5, 1, 5, 0,24, 0.00,60.00,Friday
12,4221155.3941776589
588,5448404.156764112
2,6, 1, 6, 0, 1, 0.00,60.00,Saturday
12,2276835.795262851
588,6071917.189498885
2,6, 1, 6, 0, 2, 0.00,60.00,Saturday
12,4397106.094650653
588,6210428.025601757
2,6, 1, 6, 0, 3, 0.00,60.00,Saturday
12,2139015.4653254386
588,6349179.966664053
2,6, 1, 6, 0, 4, 0.00,60.00,Saturday
12,1970528.7714931928
588,6866482.362837703
2,6, 1, 6, 0, 5, 0.00,60.00,Saturday
12,1919125.8502590126
588,7133415.844476625
2,6, 1, 6, 0, 6, 0.00,60.00,Saturday
12,18170151.980233298
588,7971063.194247082
2,6, 1, 6, 0, 7, 0.00,60.00,Saturday
12,2226340.301753365
588,7529145.443532375
2,6, 1, 6, 0, 8, 0.00,60.00,Saturday
12,3530772.8573717575
588,7530205.788390649
2,6, 1, 6, 0, 9, 0.00,60.00,Saturday
12,3291531.970198848
588,6889778.84431982
2,6, 1, 6, 0,10, 0.00,60.00,Saturday
12,5626267.15438316
588,6286462.706488606
2,6, 1, 6, 0,11, 0.00,60.00,Saturday
12,3008465.784402993
588,5401198.153797284
2,6, 1, 6, 0,12, 0.00,60.00,Saturday
12,5374462.984709523
588,4441998.93420517
2,6, 1, 6, 0,13, 0.00,60.00,Saturday
12,10089129.358878807
588,4757812.667398474
2,6, 1, 6, 0,14, 0.00,60.00,Saturday
12,5382056.276493406
588,5079591.320909492
2,6, 1, 6, 0,15, 0.00,60.00,Saturday
12,3082249.2509024476
588,5206021.085599406
2,6, 1, 6, 0,16, 0.00,60.00,Saturday
12,4513679.827775952
588,5415741.093614792
2,6, 1, 6, 0,17, 0.00,60.00,Saturday
12,3902251.0614967707
588,6762129.862280889
2,6, 1, 6, 0,18, 0.00,60.00,Saturday
12,6343903.96428751
588,6308632.316236113
2,6, 1, 6, 0,19, 0.00,60.00,Saturday
12,10638176.969335013
588,6667867.385692786
2,6, 1, 6, 0,20, 0.00,60.00,Saturday
12,6956525.369291902
588,7451111.930673796
2,6, 1, 6, 0,21, 0.00,60.00,Saturday
12,7962063.871979423
588,7482497.503194495
2,6, 1, 6, 0,22, 0.00,60.00,Saturday
12,24966157.39004293
588,8770709.863405286
2,6, 1, 6, 0,23, 0.00,60.00,Saturday
12,3287392.483917845
588,9316860.086654256
2,6, 1, 6, 0,24, 0.00,60.00,Saturday
12,4301765.334691312
588,10462140.240323402
2,7, 1, 7, 0, 1, 0.00,60.00,Sunday
12,2376204.568370725
588,11301318.154020263
2,7, 1, 7, 0, 2, 0.00,60.00,Sunday
12,2215188.6897922439
588,11198997.576581672
2,7, 1, 7, 0, 3, 0.00,60.00,Sunday
12,2161495.928483685
588,12554747.78967831
2,7, 1, 7, 0, 4, 0.00,60.00,Sunday
12,4776232.834764718
588,13511134.129089512
2,7, 1, 7, 0, 5, 0.00,60.00,Sunday
12,12914690.538409954
588,15054250.93615478
2,7, 1, 7, 0, 6, 0.00,60.00,Sunday
12,2412386.591402799
588,14561142.726152685
2,7, 1, 7, 0, 7, 0.00,60.00,Sunday
12,7644503.467553271
588,14534669.259019906
2,7, 1, 7, 0, 8, 0.00,60.00,Sunday
12,4449080.204126587
588,10399443.338990499
2,7, 1, 7, 0, 9, 0.00,60.00,Sunday
12,3260135.1054378605
588,9484624.472270428
2,7, 1, 7, 0,10, 0.00,60.00,Sunday
12,6135603.643479165
588,8785479.254642046
2,7, 1, 7, 0,11, 0.00,60.00,Sunday
12,3983695.8105730277
588,7822530.383656623
2,7, 1, 7, 0,12, 0.00,60.00,Sunday
12,3226271.980554403
588,6914048.840847582
2,7, 1, 7, 0,13, 0.00,60.00,Sunday
12,4564732.393336168
588,6477205.625626918
2,7, 1, 7, 0,14, 0.00,60.00,Sunday
12,3139167.3729097975
588,6392974.600398044
2,7, 1, 7, 0,15, 0.00,60.00,Sunday
12,3278192.3594609869
588,6305078.989340086
2,7, 1, 7, 0,16, 0.00,60.00,Sunday
12,3355326.3663010599
588,6292939.699472285
2,7, 1, 7, 0,17, 0.00,60.00,Sunday
12,9119767.089791649
588,6235406.231374588
2,7, 1, 7, 0,18, 0.00,60.00,Sunday
12,8169180.577593012
588,5374211.330900663
2,7, 1, 7, 0,19, 0.00,60.00,Sunday
12,5301980.8301845309
588,4683152.387208538
2,7, 1, 7, 0,20, 0.00,60.00,Sunday
12,5429001.4003020939
588,4816681.871296062
2,7, 1, 7, 0,21, 0.00,60.00,Sunday
12,5220850.270596026
588,5588520.325012009
2,7, 1, 7, 0,22, 0.00,60.00,Sunday
12,6010946.151401017
588,6374746.021116206
2,7, 1, 7, 0,23, 0.00,60.00,Sunday
12,4070651.0032658518
588,6723154.828151497
2,7, 1, 7, 0,24, 0.00,60.00,Sunday
12,4282938.462624781
588,6432932.518302834
2,8, 1, 8, 0, 1, 0.00,60.00,Monday
12,2287780.0841964918
588,6803654.873864361
2,8, 1, 8, 0, 2, 0.00,60.00,Monday
12,2140907.488405457
588,7301476.208609648
2,8, 1, 8, 0, 3, 0.00,60.00,Monday
12,2077982.1383354972
588,8172794.138605628
2,8, 1, 8, 0, 4, 0.00,60.00,Monday
12,2060091.092674076
588,10633492.678228623
2,8, 1, 8, 0, 5, 0.00,60.00,Monday
12,1991290.9729302233
588,10919906.940235876
2,8, 1, 8, 0, 6, 0.00,60.00,Monday
12,2272381.9172867846
588,9818218.314604858
2,8, 1, 8, 0, 7, 0.00,60.00,Monday
12,3042214.911471674
588,10108249.341078533
2,8, 1, 8, 0, 8, 0.00,60.00,Monday
12,4725977.255934554
588,8697441.223648586
2,8, 1, 8, 0, 9, 0.00,60.00,Monday
12,9073897.006964606
588,7026881.634651681
2,8, 1, 8, 0,10, 0.00,60.00,Monday
12,2772367.111298466
588,5232930.232249051
2,8, 1, 8, 0,11, 0.00,60.00,Monday
12,3169406.7781665564
588,4633593.248661495
2,8, 1, 8, 0,12, 0.00,60.00,Monday
12,4376662.395282749
588,3906894.1140962184
2,8, 1, 8, 0,13, 0.00,60.00,Monday
12,4066066.78909494
588,2817822.615612762
2,8, 1, 8, 0,14, 0.00,60.00,Monday
12,2861073.092581671
588,1889540.274562677
2,8, 1, 8, 0,15, 0.00,60.00,Monday
12,3198315.532810121
588,2113956.1633039589
2,8, 1, 8, 0,16, 0.00,60.00,Monday
12,5838855.528299697
588,2010996.8683401859
2,8, 1, 8, 0,17, 0.00,60.00,Monday
12,3867576.545466105
588,3206056.854400403
2,8, 1, 8, 0,18, 0.00,60.00,Monday
12,6279159.646425528
588,4569507.945412703
2,8, 1, 8, 0,19, 0.00,60.00,Monday
12,12949237.009502862
588,5630793.243518893
2,8, 1, 8, 0,20, 0.00,60.00,Monday
12,4936474.152930242
588,6335589.988362453
2,8, 1, 8, 0,21, 0.00,60.00,Monday
12,5227862.825386827
588,5956467.82223814
2,8, 1, 8, 0,22, 0.00,60.00,Monday
12,5995733.2837740159
588,6873369.636663031
2,8, 1, 8, 0,23, 0.00,60.00,Monday
12,4071870.038971755
588,6696633.042037329
2,8, 1, 8, 0,24, 0.00,60.00,Monday
12,3141365.2148602919
588,8088530.171034602
2,9, 1, 9, 0, 1, 0.00,60.00,Tuesday
12,2413533.8572451618
588,9107146.00396987
2,9, 1, 9, 0, 2, 0.00,60.00,Tuesday
12,3310315.713104629
588,9361587.673041996
2,9, 1, 9, 0, 3, 0.00,60.00,Tuesday
12,2026570.6540333152
588,9612676.739829757
2,9, 1, 9, 0, 4, 0.00,60.00,Tuesday
12,2044757.0431575112
588,9828917.839203684
2,9, 1, 9, 0, 5, 0.00,60.00,Tuesday
12,1970860.3102237352
588,9847913.717539676
2,9, 1, 9, 0, 6, 0.00,60.00,Tuesday
12,2274564.5894335096
588,9932742.732254506
2,9, 1, 9, 0, 7, 0.00,60.00,Tuesday
12,3034593.6509882837
588,9708363.164894782
2,9, 1, 9, 0, 8, 0.00,60.00,Tuesday
12,4743879.533489021
588,8229945.233041989
2,9, 1, 9, 0, 9, 0.00,60.00,Tuesday
12,3210207.1637151439
588,6926892.709192901
2,9, 1, 9, 0,10, 0.00,60.00,Tuesday
12,4340468.506989375
588,6008227.306058242
2,9, 1, 9, 0,11, 0.00,60.00,Tuesday
12,4294321.6397267
588,5283251.331209609
2,9, 1, 9, 0,12, 0.00,60.00,Tuesday
12,3168519.9324908538
588,4753151.924112602
2,9, 1, 9, 0,13, 0.00,60.00,Tuesday
12,4316437.424335305
588,4665608.281375208
2,9, 1, 9, 0,14, 0.00,60.00,Tuesday
12,3091434.5802559654
588,4369339.036222772
2,9, 1, 9, 0,15, 0.00,60.00,Tuesday
12,3230553.9456609787
588,3805499.9268660906
2,9, 1, 9, 0,16, 0.00,60.00,Tuesday
12,3879097.545953742
588,3811330.277954907
2,9, 1, 9, 0,17, 0.00,60.00,Tuesday
12,4479195.971824578
588,4465011.793479953
2,9, 1, 9, 0,18, 0.00,60.00,Tuesday
12,5033309.917868176
588,5028461.271313953
2,9, 1, 9, 0,19, 0.00,60.00,Tuesday
12,5556155.034393744
588,5396830.755112495
2,9, 1, 9, 0,20, 0.00,60.00,Tuesday
12,5440836.170705977
588,5437650.160352073
2,9, 1, 9, 0,21, 0.00,60.00,Tuesday
12,5239278.683544003
588,6555455.860539422
2,9, 1, 9, 0,22, 0.00,60.00,Tuesday
12,4830653.145996258
588,7072968.814493918
2,9, 1, 9, 0,23, 0.00,60.00,Tuesday
12,5304423.065649294
588,7791110.329147589
2,9, 1, 9, 0,24, 0.00,60.00,Tuesday
12,7538050.063724091
588,9377532.333155225
2,10, 1,10, 0, 1, 0.00,60.00,Wednesday
12,2116788.04034028
588,9831840.023014224
2,10, 1,10, 0, 2, 0.00,60.00,Wednesday
12,2197321.1531801444
588,10261491.122208845
2,10, 1,10, 0, 3, 0.00,60.00,Wednesday
12,2117390.24732686
588,10240530.577942903
2,10, 1,10, 0, 4, 0.00,60.00,Wednesday
12,2069504.9009533178
588,11127433.517059261
2,10, 1,10, 0, 5, 0.00,60.00,Wednesday
12,2001436.2598423456
588,11452228.3322703
2,10, 1,10, 0, 6, 0.00,60.00,Wednesday
12,3436402.1065121868
588,11595514.414526418
2,10, 1,10, 0, 7, 0.00,60.00,Wednesday
12,2975939.0295935526
588,10768207.060015087
2,10, 1,10, 0, 8, 0.00,60.00,Wednesday
12,3609561.145100549
588,10401285.83816213
2,10, 1,10, 0, 9, 0.00,60.00,Wednesday
12,3326466.248646729
588,8722774.194197452
2,10, 1,10, 0,10, 0.00,60.00,Wednesday
12,14899793.313044023
588,7559955.524756038
2,10, 1,10, 0,11, 0.00,60.00,Wednesday
12,11351726.784771692
588,6075760.175214842
2,10, 1,10, 0,12, 0.00,60.00,Wednesday
12,3317298.5236866038
588,4076855.320121153
2,10, 1,10, 0,13, 0.00,60.00,Wednesday
12,3076658.7397091698
588,2812341.3323487194
2,10, 1,10, 0,14, 0.00,60.00,Wednesday
12,3136935.613763143
588,2527181.692005412
2,10, 1,10, 0,15, 0.00,60.00,Wednesday
12,3199565.07963175
588,2179519.6618292618
2,10, 1,10, 0,16, 0.00,60.00,Wednesday
12,3281901.477957877
588,2440348.9239356087
2,10, 1,10, 0,17, 0.00,60.00,Wednesday
12,3924197.085181892
588,3611726.1931236528
2,10, 1,10, 0,18, 0.00,60.00,Wednesday
12,6214078.438838045
588,4752704.446161281
2,10, 1,10, 0,19, 0.00,60.00,Wednesday
12,6670424.049107422
588,5457302.652421597
2,10, 1,10, 0,20, 0.00,60.00,Wednesday
12,14752554.627033987
588,5552821.152612346
2,10, 1,10, 0,21, 0.00,60.00,Wednesday
12,5279050.029487099
588,5936252.607833922
2,10, 1,10, 0,22, 0.00,60.00,Wednesday
12,4805098.741255701
588,7405893.410834365
2,10, 1,10, 0,23, 0.00,60.00,Wednesday
12,4180378.4271136645
588,8110793.099578713
2,10, 1,10, 0,24, 0.00,60.00,Wednesday
12,4344231.616065001
588,10311020.856572368
2,11, 1,11, 0, 1, 0.00,60.00,Thursday
12,2358931.828215986
588,10490781.15619421
2,11, 1,11, 0, 2, 0.00,60.00,Thursday
12,2212947.7063884127
588,11081413.577687763
2,11, 1,11, 0, 3, 0.00,60.00,Thursday
12,2128001.3952635314
588,10797295.614718998
2,11, 1,11, 0, 4, 0.00,60.00,Thursday
12,2073335.0256818047
588,11328399.477390796
2,11, 1,11, 0, 5, 0.00,60.00,Thursday
12,3166999.5978511867
588,11585445.989060529
2,11, 1,11, 0, 6, 0.00,60.00,Thursday
12,2213085.216548779
588,10964734.072171798
2,11, 1,11, 0, 7, 0.00,60.00,Thursday
12,3049975.8958930808
588,10515466.80733116
2,11, 1,11, 0, 8, 0.00,60.00,Thursday
12,4782358.433661983
588,10158038.970508028
2,11, 1,11, 0, 9, 0.00,60.00,Thursday
12,12922598.79879336
588,10179841.428848943
2,11, 1,11, 0,10, 0.00,60.00,Thursday
12,4909467.407496214
588,7536195.842912754
2,11, 1,11, 0,11, 0.00,60.00,Thursday
12,3001940.117749253
588,4812513.555660214
2,11, 1,11, 0,12, 0.00,60.00,Thursday
12,8685751.700377148
588,3756105.459010591
2,11, 1,11, 0,13, 0.00,60.00,Thursday
12,2980214.21949927
588,2888870.232948925
2,11, 1,11, 0,14, 0.00,60.00,Thursday
12,2928230.251379631
588,2534463.4371851019
2,11, 1,11, 0,15, 0.00,60.00,Thursday
12,3028954.6295302819
588,2672187.6677573088
2,11, 1,11, 0,16, 0.00,60.00,Thursday
12,4273967.12747198
588,3002521.811370017
2,11, 1,11, 0,17, 0.00,60.00,Thursday
12,3837976.5361926986
588,3339427.7642713699
2,11, 1,11, 0,18, 0.00,60.00,Thursday
12,5991350.101334231
588,3073003.406374856
2,11, 1,11, 0,19, 0.00,60.00,Thursday
12,5642673.940934767
588,2780480.88013289
2,11, 1,11, 0,20, 0.00,60.00,Thursday
12,7746502.029818034
588,3501622.471629324
2,11, 1,11, 0,21, 0.00,60.00,Thursday
12,5203526.060641436
588,3958583.8890077506
2,11, 1,11, 0,22, 0.00,60.00,Thursday
12,4753477.064105772
588,3675851.3738597526
2,11, 1,11, 0,23, 0.00,60.00,Thursday
12,5310491.618878836
588,4380494.88998026
2,11, 1,11, 0,24, 0.00,60.00,Thursday
12,2999848.9301603815
588,5060785.895899218
2,12, 1,12, 0, 1, 0.00,60.00,Friday
12,2351724.5945548668
588,5864025.031550125
2,12, 1,12, 0, 2, 0.00,60.00,Friday
12,2132888.227828813
588,6880707.0386273129
2,12, 1,12, 0, 3, 0.00,60.00,Friday
12,2064653.0768389898
588,7473420.662843664
2,12, 1,12, 0, 4, 0.00,60.00,Friday
12,2024909.6154106206
588,8787526.850654765
2,12, 1,12, 0, 5, 0.00,60.00,Friday
12,1965675.1825717518
588,9575850.995855397
2,12, 1,12, 0, 6, 0.00,60.00,Friday
12,7322127.158082595
588,9901422.621943327
2,12, 1,12, 0, 7, 0.00,60.00,Friday
12,10710294.305008444
588,10593162.863226893
2,12, 1,12, 0, 8, 0.00,60.00,Friday
12,4176781.495240239
588,9616846.223931203
2,12, 1,12, 0, 9, 0.00,60.00,Friday
12,3244293.782273443
588,8572505.150550923
2,12, 1,12, 0,10, 0.00,60.00,Friday
12,3137479.983358441
588,7730616.798308798
2,12, 1,12, 0,11, 0.00,60.00,Friday
12,23337043.93834378
588,7355271.827285627
2,12, 1,12, 0,12, 0.00,60.00,Friday
12,9324734.102288858
588,5648289.921148317
2,12, 1,12, 0,13, 0.00,60.00,Friday
12,3911369.8691455407
588,5566660.486539514
2,12, 1,12, 0,14, 0.00,60.00,Friday
12,4270471.922763714
588,5384402.297592327
2,12, 1,12, 0,15, 0.00,60.00,Friday
12,3176307.1559605498
588,5228823.550015159
2,12, 1,12, 0,16, 0.00,60.00,Friday
12,3330365.278026253
588,4983235.85647276
2,12, 1,12, 0,17, 0.00,60.00,Friday
12,3968145.470228737
588,5917690.10606612
2,12, 1,12, 0,18, 0.00,60.00,Friday
12,7411261.729397142
588,6038688.044405617
2,12, 1,12, 0,19, 0.00,60.00,Friday
12,5541421.543721916
588,5516138.4455585549
2,12, 1,12, 0,20, 0.00,60.00,Friday
12,7036202.77028765
588,5283130.202467057
2,12, 1,12, 0,21, 0.00,60.00,Friday
12,6479202.035466159
588,6201551.407027815
2,12, 1,12, 0,22, 0.00,60.00,Friday
12,7803629.535377544
588,6809611.537847802
2,12, 1,12, 0,23, 0.00,60.00,Friday
12,3992004.485411731
588,7471715.305520654
2,12, 1,12, 0,24, 0.00,60.00,Friday
12,4267235.293724863
588,7863743.48460533
2,13, 1,13, 0, 1, 0.00,60.00,Saturday
12,2307244.4865894045
588,7667627.765837861
2,13, 1,13, 0, 2, 0.00,60.00,Saturday
12,4707158.618698513
588,7032294.014311248
2,13, 1,13, 0, 3, 0.00,60.00,Saturday
12,1883010.1378546316
588,7356410.536299059
2,13, 1,13, 0, 4, 0.00,60.00,Saturday
12,1992865.9245193962
588,7106200.113531553
2,13, 1,13, 0, 5, 0.00,60.00,Saturday
12,1916809.299561523
588,7011866.843182977
2,13, 1,13, 0, 6, 0.00,60.00,Saturday
12,18284146.728315694
588,8063189.595628343
2,13, 1,13, 0, 7, 0.00,60.00,Saturday
12,2352769.3011715325
588,7553873.604811679
2,13, 1,13, 0, 8, 0.00,60.00,Saturday
12,3507630.662511475
588,6805736.972617033
2,13, 1,13, 0, 9, 0.00,60.00,Saturday
12,3254984.2238893185
588,4972125.123954019
2,13, 1,13, 0,10, 0.00,60.00,Saturday
12,5584027.315986833
588,3894184.0172906096
2,13, 1,13, 0,11, 0.00,60.00,Saturday
12,2958497.049013405
588,2791624.917632547
2,13, 1,13, 0,12, 0.00,60.00,Saturday
12,5322989.491936155
588,1694179.2275854063
2,13, 1,13, 0,13, 0.00,60.00,Saturday
12,9846916.228900925
588,811320.0094149388
2,13, 1,13, 0,14, 0.00,60.00,Saturday
12,5309717.686410369
588,1162246.1650545726
2,13, 1,13, 0,15, 0.00,60.00,Saturday
12,2999444.9653018016
588,873127.0344375488
2,13, 1,13, 0,16, 0.00,60.00,Saturday
12,4430839.6981086139
588,1039530.0963061543
2,13, 1,13, 0,17, 0.00,60.00,Saturday
12,3809641.956862722
588,1905012.2569281429
2,13, 1,13, 0,18, 0.00,60.00,Saturday
12,6269540.931772522
588,2314292.899740435
2,13, 1,13, 0,19, 0.00,60.00,Saturday
12,11185332.168132317
588,2642713.8137948478
2,13, 1,13, 0,20, 0.00,60.00,Saturday
12,6330433.132818228
588,2428049.1771405485
2,13, 1,13, 0,21, 0.00,60.00,Saturday
12,8409144.33324092
588,2737159.842469901
2,13, 1,13, 0,22, 0.00,60.00,Saturday
12,24785367.01702629
588,3965876.910739084
2,13, 1,13, 0,23, 0.00,60.00,Saturday
12,2932729.8948155997
588,4940266.781903236
2,13, 1,13, 0,24, 0.00,60.00,Saturday
12,4225054.158429516
588,5424071.81178197
2,14, 1,14, 0, 1, 0.00,60.00,Sunday
12,2262398.1249436538
588,5330346.224407249
2,14, 1,14, 0, 2, 0.00,60.00,Sunday
12,2092805.3629644765
588,4777566.2791662639
2,14, 1,14, 0, 3, 0.00,60.00,Sunday
12,2018348.9797830249
588,5043852.961581681
2,14, 1,14, 0, 4, 0.00,60.00,Sunday
12,4624871.757629519
588,5266338.502212054
2,14, 1,14, 0, 5, 0.00,60.00,Sunday
12,13056741.413773798
588,5964583.867661481
2,14, 1,14, 0, 6, 0.00,60.00,Sunday
12,2150127.147045493
588,5371035.915435845
2,14, 1,14, 0, 7, 0.00,60.00,Sunday
12,7499513.272232122
588,5707000.640260062
2,14, 1,14, 0, 8, 0.00,60.00,Sunday
12,4350232.489049068
588,5263498.708271979
2,14, 1,14, 0, 9, 0.00,60.00,Sunday
12,3163245.940826832
588,4402118.015266571
2,14, 1,14, 0,10, 0.00,60.00,Sunday
12,6287844.4603742989
588,3512438.326508459
2,14, 1,14, 0,11, 0.00,60.00,Sunday
12,3327173.451726336
588,2569123.2542197348
2,14, 1,14, 0,12, 0.00,60.00,Sunday
12,2958740.910514981
588,1053855.8263852264
2,14, 1,14, 0,13, 0.00,60.00,Sunday
12,4280885.90112636
588,986227.0227835012
2,14, 1,14, 0,14, 0.00,60.00,Sunday
12,2858794.4313270787
588,1129366.7299575136
2,14, 1,14, 0,15, 0.00,60.00,Sunday
12,3005579.9228092657
588,1445720.9815110868
2,14, 1,14, 0,16, 0.00,60.00,Sunday
12,3090821.3429173037
588,1858976.2175925547
2,14, 1,14, 0,17, 0.00,60.00,Sunday
12,9090335.101662385
588,2501559.827699712
2,14, 1,14, 0,18, 0.00,60.00,Sunday
12,7927214.601953686
588,2306658.107723861
2,14, 1,14, 0,19, 0.00,60.00,Sunday
12,5273051.089391804
588,2550052.989890588
2,14, 1,14, 0,20, 0.00,60.00,Sunday
12,5395827.470350905
588,3076051.6925902606
2,14, 1,14, 0,21, 0.00,60.00,Sunday
12,5192325.364291505
588,4091823.5865953436
2,14, 1,14, 0,22, 0.00,60.00,Sunday
12,5983017.515332956
588,4865669.452203502
2,14, 1,14, 0,23, 0.00,60.00,Sunday
12,4046726.087107758
588,5470865.458790566
2,14, 1,14, 0,24, 0.00,60.00,Sunday
12,4287666.705887239
588,6653002.732220885
2,15, 1,15, 0, 1, 0.00,60.00,Monday
12,2293015.628121259
588,7080317.957371929
2,15, 1,15, 0, 2, 0.00,60.00,Monday
12,2146402.037466551
588,7589774.216358255
2,15, 1,15, 0, 3, 0.00,60.00,Monday
12,2070996.137002123
588,7806239.896547425
2,15, 1,15, 0, 4, 0.00,60.00,Monday
12,2016211.186020742
588,8331121.814361438
2,15, 1,15, 0, 5, 0.00,60.00,Monday
12,1946568.4956536326
588,8573326.546274152
2,15, 1,15, 0, 6, 0.00,60.00,Monday
12,2243620.767548493
588,8309125.925418288
2,15, 1,15, 0, 7, 0.00,60.00,Monday
12,3021288.926132257
588,9010266.628311634
2,15, 1,15, 0, 8, 0.00,60.00,Monday
12,4719006.652747288
588,8319709.548345228
2,15, 1,15, 0, 9, 0.00,60.00,Monday
12,9061396.219696504
588,5683296.997386392
2,15, 1,15, 0,10, 0.00,60.00,Monday
12,2745683.184356309
588,3880868.511820599
2,15, 1,15, 0,11, 0.00,60.00,Monday
12,2948577.0232522187
588,2491263.3016932506
2,15, 1,15, 0,12, 0.00,60.00,Monday
12,4142911.8279074926
588,1078446.298837765
2,15, 1,15, 0,13, 0.00,60.00,Monday
12,4023763.0465923587
588,556579.4508990165
2,15, 1,15, 0,14, 0.00,60.00,Monday
12,2829425.4602308229
588,231935.1043235009
2,15, 1,15, 0,15, 0.00,60.00,Monday
12,2978026.541765814
588,0.0
2,15, 1,15, 0,16, 0.00,60.00,Monday
12,5751384.709775796
588,409274.81639436059
2,15, 1,15, 0,17, 0.00,60.00,Monday
12,3708346.591138259
588,1199713.0859819544
2,15, 1,15, 0,18, 0.00,60.00,Monday
12,6237042.879119733
588,1881404.4801122428
2,15, 1,15, 0,19, 0.00,60.00,Monday
12,12955372.984984857
588,2923038.3576066147
2,15, 1,15, 0,20, 0.00,60.00,Monday
12,6007150.612334924
588,3037478.320007929
2,15, 1,15, 0,21, 0.00,60.00,Monday
12,5107195.968032855
588,3789710.0525615548
2,15, 1,15, 0,22, 0.00,60.00,Monday
12,4777731.767903174
588,4296193.559254024
2,15, 1,15, 0,23, 0.00,60.00,Monday
12,5272790.701228049
588,5596749.076757804
2,15, 1,15, 0,24, 0.00,60.00,Monday
12,3021948.3923005487
588,5997456.959544848
2,16, 1,16, 0, 1, 0.00,60.00,Tuesday
12,2347587.7455266809
588,5646965.302003309
2,16, 1,16, 0, 2, 0.00,60.00,Tuesday
12,2113342.4810377305
588,5855145.195940617
2,16, 1,16, 0, 3, 0.00,60.00,Tuesday
12,2019515.996653446
588,5105086.128309368
2,16, 1,16, 0, 4, 0.00,60.00,Tuesday
12,1989166.3980744936
588,6912086.621811008
2,16, 1,16, 0, 5, 0.00,60.00,Tuesday
12,1933824.4158610593
588,7904646.956022793
2,16, 1,16, 0, 6, 0.00,60.00,Tuesday
12,2238157.990545613
588,8022494.991888761