Program Version,EnergyPlus, Version 9.2.0-921312fa1d, YMD=2019.12.18 17:26
1,5,Environment Title[],Latitude[deg],Longitude[deg],Time Zone[],Elevation[m]
2,8,Day of Simulation[],Month[],Day of Month[],DST Indicator[1=yes 0=no],Hour[],StartMinute[],EndMinute[],DayType
3,5,Cumulative Day of Simulation[],Month[],Day of Month[],DST Indicator[1=yes 0=no],DayType  ! When Daily Report Variables Requested
4,2,Cumulative Days of Simulation[],Month[]  ! When Monthly Report Variables Requested
5,1,Cumulative Days of Simulation[] ! When Run Period Report Variables Requested
6,1,Calendar Year of Simulation[] ! When Annual Report Variables Requested
319,11,EMS,central ac and furnace supply fan clg disaggregate [J] !RunPeriod [Value,Min,Month,Day,Hour,Minute,Max,Month,Day,Hour,Minute]
320,9,EMS,central ac and furnace supply fan clg disaggregate [J] !Monthly [Value,Min,Day,Hour,Minute,Max,Day,Hour,Minute]
321,11,EMS,central ac and furnace supply fan htg primary disaggregate [J] !RunPeriod [Value,Min,Month,Day,Hour,Minute,Max,Month,Day,Hour,Minute]
322,9,EMS,central ac and furnace supply fan htg primary disaggregate [J] !Monthly [Value,Min,Day,Hour,Minute,Max,Day,Hour,Minute]
323,11,EMS,clg_ceilings_outvar [J] !RunPeriod [Value,Min,Month,Day,Hour,Minute,Max,Month,Day,Hour,Minute]
324,11,EMS,clg_doors_outvar [J] !RunPeriod [Value,Min,Month,Day,Hour,Minute,Max,Month,Day,Hour,Minute]
325,11,EMS,clg_ducts_outvar [J] !RunPeriod [Value,Min,Month,Day,Hour,Minute,Max,Month,Day,Hour,Minute]
326,11,EMS,clg_floors_outvar [J] !RunPeriod [Value,Min,Month,Day,Hour,Minute,Max,Month,Day,Hour,Minute]
327,11,EMS,clg_foundation_walls_outvar [J] !RunPeriod [Value,Min,Month,Day,Hour,Minute,Max,Month,Day,Hour,Minute]
328,11,EMS,clg_infil_outvar [J] !RunPeriod [Value,Min,Month,Day,Hour,Minute,Max,Month,Day,Hour,Minute]
329,11,EMS,clg_internal_mass_outvar [J] !RunPeriod [Value,Min,Month,Day,Hour,Minute,Max,Month,Day,Hour,Minute]
330,11,EMS,clg_intgains_outvar [J] !RunPeriod [Value,Min,Month,Day,Hour,Minute,Max,Month,Day,Hour,Minute]
331,11,EMS,clg_mechvent_outvar [J] !RunPeriod [Value,Min,Month,Day,Hour,Minute,Max,Month,Day,Hour,Minute]
332,11,EMS,clg_natvent_outvar [J] !RunPeriod [Value,Min,Month,Day,Hour,Minute,Max,Month,Day,Hour,Minute]
333,11,EMS,clg_rim_joists_outvar [J] !RunPeriod [Value,Min,Month,Day,Hour,Minute,Max,Month,Day,Hour,Minute]
334,11,EMS,clg_roofs_outvar [J] !RunPeriod [Value,Min,Month,Day,Hour,Minute,Max,Month,Day,Hour,Minute]
335,11,EMS,clg_skylights_outvar [J] !RunPeriod [Value,Min,Month,Day,Hour,Minute,Max,Month,Day,Hour,Minute]
336,11,EMS,clg_slabs_outvar [J] !RunPeriod [Value,Min,Month,Day,Hour,Minute,Max,Month,Day,Hour,Minute]
337,11,EMS,clg_walls_outvar [J] !RunPeriod [Value,Min,Month,Day,Hour,Minute,Max,Month,Day,Hour,Minute]
338,11,EMS,clg_windows_outvar [J] !RunPeriod [Value,Min,Month,Day,Hour,Minute,Max,Month,Day,Hour,Minute]
339,11,EMS,htg_ceilings_outvar [J] !RunPeriod [Value,Min,Month,Day,Hour,Minute,Max,Month,Day,Hour,Minute]
340,11,EMS,htg_doors_outvar [J] !RunPeriod [Value,Min,Month,Day,Hour,Minute,Max,Month,Day,Hour,Minute]
341,11,EMS,htg_ducts_outvar [J] !RunPeriod [Value,Min,Month,Day,Hour,Minute,Max,Month,Day,Hour,Minute]
342,11,EMS,htg_floors_outvar [J] !RunPeriod [Value,Min,Month,Day,Hour,Minute,Max,Month,Day,Hour,Minute]
343,11,EMS,htg_foundation_walls_outvar [J] !RunPeriod [Value,Min,Month,Day,Hour,Minute,Max,Month,Day,Hour,Minute]
344,11,EMS,htg_infil_outvar [J] !RunPeriod [Value,Min,Month,Day,Hour,Minute,Max,Month,Day,Hour,Minute]
345,11,EMS,htg_internal_mass_outvar [J] !RunPeriod [Value,Min,Month,Day,Hour,Minute,Max,Month,Day,Hour,Minute]
346,11,EMS,htg_intgains_outvar [J] !RunPeriod [Value,Min,Month,Day,Hour,Minute,Max,Month,Day,Hour,Minute]
347,11,EMS,htg_mechvent_outvar [J] !RunPeriod [Value,Min,Month,Day,Hour,Minute,Max,Month,Day,Hour,Minute]
348,11,EMS,htg_natvent_outvar [J] !RunPeriod [Value,Min,Month,Day,Hour,Minute,Max,Month,Day,Hour,Minute]
349,11,EMS,htg_rim_joists_outvar [J] !RunPeriod [Value,Min,Month,Day,Hour,Minute,Max,Month,Day,Hour,Minute]
350,11,EMS,htg_roofs_outvar [J] !RunPeriod [Value,Min,Month,Day,Hour,Minute,Max,Month,Day,Hour,Minute]
351,11,EMS,htg_skylights_outvar [J] !RunPeriod [Value,Min,Month,Day,Hour,Minute,Max,Month,Day,Hour,Minute]
352,11,EMS,htg_slabs_outvar [J] !RunPeriod [Value,Min,Month,Day,Hour,Minute,Max,Month,Day,Hour,Minute]
353,11,EMS,htg_walls_outvar [J] !RunPeriod [Value,Min,Month,Day,Hour,Minute,Max,Month,Day,Hour,Minute]
354,11,EMS,htg_windows_outvar [J] !RunPeriod [Value,Min,Month,Day,Hour,Minute,Max,Month,Day,Hour,Minute]
355,11,EMS,water heater EC adjustment outvar [J] !RunPeriod [Value,Min,Month,Day,Hour,Minute,Max,Month,Day,Hour,Minute]
463,1,CENTRAL AC AND FURNACE AIRLOOP RET AIR ZONE,Zone Mean Air Temperature [C] !Hourly
464,1,LIVING,Zone Mean Air Temperature [C] !Hourly
466,1,UNVENTED ATTIC,Zone Mean Air Temperature [C] !Hourly
749,11,FURNACE HTG COIL,Heating Coil Heating Energy [J] !RunPeriod [Value,Min,Month,Day,Hour,Minute,Max,Month,Day,Hour,Minute]
774,11,FURNACE HTG COIL,Heating Coil Gas Energy [J] !RunPeriod [Value,Min,Month,Day,Hour,Minute,Max,Month,Day,Hour,Minute]
838,11,CENTRAL AC CLG COIL,Cooling Coil Electric Energy [J] !RunPeriod [Value,Min,Month,Day,Hour,Minute,Max,Month,Day,Hour,Minute]
1065,11,WATER USE CONNECTIONS 1,Water Use Connections Plant Hot Water Energy [J] !RunPeriod [Value,Min,Month,Day,Hour,Minute,Max,Month,Day,Hour,Minute]
1102,11,WATER HEATER,Water Heater Heat Loss Energy [J] !RunPeriod [Value,Min,Month,Day,Hour,Minute,Max,Month,Day,Hour,Minute]
1118,11,WATER HEATER,Water Heater Electric Energy [J] !RunPeriod [Value,Min,Month,Day,Hour,Minute,Max,Month,Day,Hour,Minute]
1156,11,WATER HEATER,Water Heater Off Cycle Parasitic Electric Energy [J] !RunPeriod [Value,Min,Month,Day,Hour,Minute,Max,Month,Day,Hour,Minute]
1158,11,WATER HEATER,Water Heater On Cycle Parasitic Electric Energy [J] !RunPeriod [Value,Min,Month,Day,Hour,Minute,Max,Month,Day,Hour,Minute]
1321,11,CENTRAL AC CLG COIL,Cooling Coil Crankcase Heater Electric Energy [J] !RunPeriod [Value,Min,Month,Day,Hour,Minute,Max,Month,Day,Hour,Minute]
End of Data Dictionary
1,RUN PERIOD 1,  39.83,-104.65,  -7.00,1650.00
2,1, 1, 1, 0, 1, 0.00,60.00,Monday
463,18.952983332607386
464,20.005005782994315
466,-7.706419090447808
2,1, 1, 1, 0, 2, 0.00,60.00,Monday
463,19.071962590962305
464,20.000133021889149
466,-10.26158608097177
2,1, 1, 1, 0, 3, 0.00,60.00,Monday
463,19.098849305168927
464,20.00000386212121
466,-12.191577927038532
2,1, 1, 1, 0, 4, 0.00,60.00,Monday
463,19.087138633216715
464,20.000000135849175
466,-13.500086614223879
2,1, 1, 1, 0, 5, 0.00,60.00,Monday
463,19.035723517572856
464,20.000000005290305
466,-14.249831280365572
2,1, 1, 1, 0, 6, 0.00,60.00,Monday
463,18.960047527161906
464,20.000000000209963
466,-14.468201756103922
2,1, 1, 1, 0, 7, 0.00,60.00,Monday
463,18.898447240660773
464,20.00000000000839
466,-14.328461834566003
2,1, 1, 1, 0, 8, 0.00,60.00,Monday
463,18.84591344735687
464,20.000003061509675
466,-13.35121720076433
2,1, 1, 1, 0, 9, 0.00,60.00,Monday
463,18.80833412613525
464,20.0000130848085
466,-10.91011430275018
2,1, 1, 1, 0,10, 0.00,60.00,Monday
463,18.72105335832198
464,20.000009057058706
466,-6.257431312190859
2,1, 1, 1, 0,11, 0.00,60.00,Monday
463,18.678346359020794
464,20.000004405476653
466,-0.6171154139199389
2,1, 1, 1, 0,12, 0.00,60.00,Monday
463,18.706249006752505
464,20.000003238337418
466,4.598044451673198
2,1, 1, 1, 0,13, 0.00,60.00,Monday
463,18.79087009505337
464,20.00000323520574
466,7.654610326394083
2,1, 1, 1, 0,14, 0.00,60.00,Monday
463,18.894943003988968
464,20.000002791175374
466,9.113943212696498
2,1, 1, 1, 0,15, 0.00,60.00,Monday
463,18.965601976960757
464,20.000000037941189
466,9.5748391212325
2,1, 1, 1, 0,16, 0.00,60.00,Monday
463,19.039558872855538
464,20.00000000054434
466,8.816212378796563
2,1, 1, 1, 0,17, 0.00,60.00,Monday
463,19.13603255370598
464,20.000000000010759
466,6.550730005874765
2,1, 1, 1, 0,18, 0.00,60.00,Monday
463,19.241976709501676
464,20.000001317545125
466,3.9335162557035145
2,1, 1, 1, 0,19, 0.00,60.00,Monday
463,19.319914408711996
464,20.00002084829155
466,1.2395728429534437
2,1, 1, 1, 0,20, 0.00,60.00,Monday
463,19.330612067356677
464,20.000060379778085
466,-0.770558816456978
2,1, 1, 1, 0,21, 0.00,60.00,Monday
463,19.313555481785718
464,20.000045567793515
466,-2.5494322628252816
2,1, 1, 1, 0,22, 0.00,60.00,Monday
463,19.300088755834815
464,20.000023318713997
466,-3.9965228827411876
2,1, 1, 1, 0,23, 0.00,60.00,Monday
463,19.28524738007046
464,20.000019062907826
466,-4.902301717065748
2,1, 1, 1, 0,24, 0.00,60.00,Monday
463,19.29145326995043
464,20.000011803155098
466,-5.049366340357163
2,2, 1, 2, 0, 1, 0.00,60.00,Tuesday
463,19.251890282943739
464,20.000000671998497
466,-4.714880033141032
2,2, 1, 2, 0, 2, 0.00,60.00,Tuesday
463,19.206484507715417
464,20.00000003875226
466,-4.62935729748277
2,2, 1, 2, 0, 3, 0.00,60.00,Tuesday
463,19.18035771744223
464,20.00000000227537
466,-4.709311682701202
2,2, 1, 2, 0, 4, 0.00,60.00,Tuesday
463,19.181209386525134
464,20.000000000144376
466,-4.995732836430082
2,2, 1, 2, 0, 5, 0.00,60.00,Tuesday
463,19.129087378774803
464,20.00000000000856
466,-5.335314689353496
2,2, 1, 2, 0, 6, 0.00,60.00,Tuesday
463,19.12092892015955
464,20.0000000000004
466,-5.798765773799312
2,2, 1, 2, 0, 7, 0.00,60.00,Tuesday
463,19.084906713062279
464,20.00000000000011
466,-5.900773434663875
2,2, 1, 2, 0, 8, 0.00,60.00,Tuesday
463,19.048616057427418
464,20.00000000000008
466,-5.640450969417231
2,2, 1, 2, 0, 9, 0.00,60.00,Tuesday
463,19.04251050167219
464,20.000000000000037
466,-4.278511873451385
2,2, 1, 2, 0,10, 0.00,60.00,Tuesday
463,18.988247036152865
464,20.00000000000007
466,-0.8215783689166105
2,2, 1, 2, 0,11, 0.00,60.00,Tuesday
463,18.95114318736664
464,20.0
466,4.107292401607675
2,2, 1, 2, 0,12, 0.00,60.00,Tuesday
463,18.96618514909472
464,20.000000000000015
466,9.164156531209022
2,2, 1, 2, 0,13, 0.00,60.00,Tuesday
463,19.00879022414997
464,20.000000000000026
466,12.587956144520984
2,2, 1, 2, 0,14, 0.00,60.00,Tuesday
463,19.062424704330224
464,19.999999999999994
466,14.631081729151232
2,2, 1, 2, 0,15, 0.00,60.00,Tuesday
463,19.091234695044226
464,20.000000000000008
466,15.872848988621794
2,2, 1, 2, 0,16, 0.00,60.00,Tuesday
463,19.147481376617603
464,19.999999999999984
466,15.323794301898529
2,2, 1, 2, 0,17, 0.00,60.00,Tuesday
463,19.212956857893798
464,20.000002232773594
466,12.95963874492135
2,2, 1, 2, 0,18, 0.00,60.00,Tuesday
463,19.27474601902129
464,20.000002795368756
466,10.15440330874094
2,2, 1, 2, 0,19, 0.00,60.00,Tuesday
463,19.344595176238206
464,20.000008067171899
466,7.23445045864404
2,2, 1, 2, 0,20, 0.00,60.00,Tuesday
463,19.392036158899438
464,20.000016937785117
466,4.838312711283158
2,2, 1, 2, 0,21, 0.00,60.00,Tuesday
463,19.428463783273995
464,20.000024786466264
466,2.7614562210632096
2,2, 1, 2, 0,22, 0.00,60.00,Tuesday
463,19.419507959288308
464,20.000020437851988
466,1.069406938994989
2,2, 1, 2, 0,23, 0.00,60.00,Tuesday
463,19.398510860508968
464,20.000015561172086
466,-0.46823175244225637
2,2, 1, 2, 0,24, 0.00,60.00,Tuesday
463,19.402499425122554
464,20.00001463767931
466,-1.404756602611781
2,3, 1, 3, 0, 1, 0.00,60.00,Wednesday
463,19.38497522763286
464,20.000033772099934
466,-1.7298724617404624
2,3, 1, 3, 0, 2, 0.00,60.00,Wednesday
463,19.364735926028009
464,20.00002600983125
466,-1.7607681494343346
2,3, 1, 3, 0, 3, 0.00,60.00,Wednesday
463,19.34035526673613
464,20.000008247665268
466,-1.7474947232868117
2,3, 1, 3, 0, 4, 0.00,60.00,Wednesday
463,19.324911554780756
464,20.000000387478069
466,-1.8481097368474862
2,3, 1, 3, 0, 5, 0.00,60.00,Wednesday
463,19.30635450817257
464,20.000000019038425
466,-1.9223837054494196
2,3, 1, 3, 0, 6, 0.00,60.00,Wednesday
463,19.28502182184911
464,20.000000000952988
466,-1.754492536127405
2,3, 1, 3, 0, 7, 0.00,60.00,Wednesday
463,19.249684031513025
464,20.000000000044908
466,-1.5046415892184304
2,3, 1, 3, 0, 8, 0.00,60.00,Wednesday
463,19.243891560417777
464,20.000000000002126
466,-1.2029958096428273
2,3, 1, 3, 0, 9, 0.00,60.00,Wednesday
463,19.188351619803919
464,20.00000000000006
466,0.1992085960849968
2,3, 1, 3, 0,10, 0.00,60.00,Wednesday
463,19.196443114294828
464,20.00000000000002
466,2.73838828482537
2,3, 1, 3, 0,11, 0.00,60.00,Wednesday
463,19.183328126987499
464,20.00002195015185
466,6.568106497380571
2,3, 1, 3, 0,12, 0.00,60.00,Wednesday
463,19.22197043423797
464,20.000040268146234
466,10.10561295933885
2,3, 1, 3, 0,13, 0.00,60.00,Wednesday
463,19.294735194344587
464,20.000017127313038
466,11.89950437862452
2,3, 1, 3, 0,14, 0.00,60.00,Wednesday
463,19.385227585556245
464,20.000000464706518
466,12.277019959330529
2,3, 1, 3, 0,15, 0.00,60.00,Wednesday
463,19.43421529969007
464,20.000000010965548
466,11.62166816847552
2,3, 1, 3, 0,16, 0.00,60.00,Wednesday
463,19.503647980899424
464,20.00000000032929
466,9.486229323977707
2,3, 1, 3, 0,17, 0.00,60.00,Wednesday
463,19.548330745590808
464,20.000000000011949
466,6.382341395380829
2,3, 1, 3, 0,18, 0.00,60.00,Wednesday
463,19.552379615824579
464,20.00000000000052
466,3.138762976554794
2,3, 1, 3, 0,19, 0.00,60.00,Wednesday
463,19.512164024301499
464,20.000000000000015
466,0.5494070137317403
2,3, 1, 3, 0,20, 0.00,60.00,Wednesday
463,19.46564143196302
464,19.999999999999966
466,-1.6649701749436508
2,3, 1, 3, 0,21, 0.00,60.00,Wednesday
463,19.436870546927318
464,20.000070511403519
466,-3.6593249567104197
2,3, 1, 3, 0,22, 0.00,60.00,Wednesday
463,19.37896629988873
464,20.000050955748795
466,-5.277875147421438
2,3, 1, 3, 0,23, 0.00,60.00,Wednesday
463,19.32171146927752
464,20.00000673574398
466,-6.706433265254375
2,3, 1, 3, 0,24, 0.00,60.00,Wednesday
463,19.256410477255746
464,20.00000044072571
466,-7.781198128942859
2,4, 1, 4, 0, 1, 0.00,60.00,Thursday
463,19.19329531321849
464,20.000000031002967
466,-8.72567361996418
2,4, 1, 4, 0, 2, 0.00,60.00,Thursday
463,19.155763895394327
464,20.00000000243421
466,-9.842706936805666
2,4, 1, 4, 0, 3, 0.00,60.00,Thursday
463,19.07932189356109
464,20.000000000197909
466,-10.853884408436782
2,4, 1, 4, 0, 4, 0.00,60.00,Thursday
463,18.998384074090745
464,20.00000000001587
466,-11.571160919935885
2,4, 1, 4, 0, 5, 0.00,60.00,Thursday
463,18.947392485931915
464,20.000000000001316
466,-12.1272865776618
2,4, 1, 4, 0, 6, 0.00,60.00,Thursday
463,18.899188168214189
464,20.00000000000009
466,-12.559163756185594
2,4, 1, 4, 0, 7, 0.00,60.00,Thursday
463,18.84684116376263
464,20.000000000000168
466,-13.10413634211034
2,4, 1, 4, 0, 8, 0.00,60.00,Thursday
463,18.779116467961197
464,19.999999999999948
466,-12.96341780350046
2,4, 1, 4, 0, 9, 0.00,60.00,Thursday
463,18.76361378223932
464,20.00000000000003
466,-11.31928150357254
2,4, 1, 4, 0,10, 0.00,60.00,Thursday
463,18.71229085586148
464,20.0000427257358
466,-7.735921777862262
2,4, 1, 4, 0,11, 0.00,60.00,Thursday
463,18.751182889936865
464,20.000030722610647
466,-3.3977274748180679
2,4, 1, 4, 0,12, 0.00,60.00,Thursday
463,18.86607977597111
464,20.000007896729504
466,0.9652201025334427
2,4, 1, 4, 0,13, 0.00,60.00,Thursday
463,18.957281948320927
464,20.00002185099606
466,4.443378829345105
2,4, 1, 4, 0,14, 0.00,60.00,Thursday
463,19.065641812692726
464,20.00001904463393
466,6.923408358194764
2,4, 1, 4, 0,15, 0.00,60.00,Thursday
463,19.157857153880017
464,20.000013866827574
466,8.764146049509975
2,4, 1, 4, 0,16, 0.00,60.00,Thursday
463,19.275400427164379
464,20.000018287923436
466,9.621738608398135
2,4, 1, 4, 0,17, 0.00,60.00,Thursday
463,19.34767364233654
464,20.00001932812426
466,9.197361842124849
2,4, 1, 4, 0,18, 0.00,60.00,Thursday
463,19.396829269598073
464,20.000021384920819
466,7.996342189261323
2,4, 1, 4, 0,19, 0.00,60.00,Thursday
463,19.428194388478919
464,20.000029141862418
466,6.834726689637457
2,4, 1, 4, 0,20, 0.00,60.00,Thursday
463,19.43950859506315
464,20.000032509124116
466,5.94528323272944
2,4, 1, 4, 0,21, 0.00,60.00,Thursday
463,19.4565314810456
464,20.000038215504689
466,5.329396419087478
2,4, 1, 4, 0,22, 0.00,60.00,Thursday
463,19.462178413327299
464,20.00003101871367
466,4.756652240449864
2,4, 1, 4, 0,23, 0.00,60.00,Thursday
463,19.471851052240308
464,20.000027288149619
466,4.09028883582312
2,4, 1, 4, 0,24, 0.00,60.00,Thursday
463,19.457283880754614
464,20.00002714291469
466,4.566812130595674
2,5, 1, 5, 0, 1, 0.00,60.00,Friday
463,19.48095781260037
464,20.000027399967374
466,4.7560800777328879
2,5, 1, 5, 0, 2, 0.00,60.00,Friday
463,19.457547008071268
464,20.00002055366378
466,5.2835600527811759
2,5, 1, 5, 0, 3, 0.00,60.00,Friday
463,19.459488823292536
464,20.000023446365036
466,6.311495194479663
2,5, 1, 5, 0, 4, 0.00,60.00,Friday
463,19.47417348990606
464,20.000027922090625
466,6.872428503111023
2,5, 1, 5, 0, 5, 0.00,60.00,Friday
463,19.484208349737555
464,20.000029005438205
466,6.751244719572316
2,5, 1, 5, 0, 6, 0.00,60.00,Friday
463,19.491020521250225
464,20.000029083096103
466,6.5951860008170339
2,5, 1, 5, 0, 7, 0.00,60.00,Friday
463,19.524924344190283
464,20.000039035473635
466,5.893081491582795
2,5, 1, 5, 0, 8, 0.00,60.00,Friday
463,19.47087834113889
464,20.00004905039674
466,5.715298892415045
2,5, 1, 5, 0, 9, 0.00,60.00,Friday
463,19.45239987925068
464,20.000037638099287
466,7.119669136314064
2,5, 1, 5, 0,10, 0.00,60.00,Friday
463,19.41693741589884
464,20.000010470174034
466,10.143713763248066
2,5, 1, 5, 0,11, 0.00,60.00,Friday
463,19.44332372747146
464,20.000007635030408
466,13.673191969790937
2,5, 1, 5, 0,12, 0.00,60.00,Friday
463,19.422807463589053
464,20.115680868964249
466,17.446932759090897
2,5, 1, 5, 0,13, 0.00,60.00,Friday
463,19.422757396757718
464,20.284309462681724
466,20.476403132022836
2,5, 1, 5, 0,14, 0.00,60.00,Friday
463,19.42276778071819
464,20.387231330150489
466,22.213808808265968
2,5, 1, 5, 0,15, 0.00,60.00,Friday
463,19.422767824830229
464,20.377618942583426
466,22.03414931343216
2,5, 1, 5, 0,16, 0.00,60.00,Friday
463,19.4227678196081
464,20.328420736279328
466,19.790971853125425
2,5, 1, 5, 0,17, 0.00,60.00,Friday
463,19.42276781957625
464,20.131457112796743
466,16.648115187677115
2,5, 1, 5, 0,18, 0.00,60.00,Friday
463,19.422767819578863
464,20.019316150279065
466,13.280630563724236
2,5, 1, 5, 0,19, 0.00,60.00,Friday
463,19.442286819622919
464,20.000105198011594
466,10.15789693681876
2,5, 1, 5, 0,20, 0.00,60.00,Friday
463,19.465483818623228
464,20.000038730570453
466,7.798397085419431
2,5, 1, 5, 0,21, 0.00,60.00,Friday
463,19.49915426144558
464,20.000022087502648
466,5.87534317528327
2,5, 1, 5, 0,22, 0.00,60.00,Friday
463,19.513481500136739
464,20.000006289440184
466,4.101470408815679
2,5, 1, 5, 0,23, 0.00,60.00,Friday
463,19.51404411736869
464,20.000011257680634
466,2.537539755218943
2,5, 1, 5, 0,24, 0.00,60.00,Friday
463,19.514337930866956
464,20.000017015570874
466,1.4180119294357792
2,6, 1, 6, 0, 1, 0.00,60.00,Saturday
463,19.497997685652245
464,20.000010230247026
466,0.8839148480701778
2,6, 1, 6, 0, 2, 0.00,60.00,Saturday
463,19.468626842090868
464,20.000000346941584
466,0.7980392446911044
2,6, 1, 6, 0, 3, 0.00,60.00,Saturday
463,19.443456797951215
464,20.000001848845078
466,0.7191915776109188
2,6, 1, 6, 0, 4, 0.00,60.00,Saturday
463,19.430234071517626
464,20.000000070293404
466,0.4553496917485086
2,6, 1, 6, 0, 5, 0.00,60.00,Saturday
463,19.40911980522976
464,20.000000002801806
466,-0.24164529188449614
2,6, 1, 6, 0, 6, 0.00,60.00,Saturday
463,19.397959653647417
464,20.000000000125089
466,-0.9377925732974972
2,6, 1, 6, 0, 7, 0.00,60.00,Saturday
463,19.34840114899573
464,20.000062370442234
466,-1.1320288906875585
2,6, 1, 6, 0, 8, 0.00,60.00,Saturday
463,19.321215981392606
464,20.000042719189009
466,-1.0462787453351843
2,6, 1, 6, 0, 9, 0.00,60.00,Saturday
463,19.2736394466464
464,20.000001632325906
466,0.16499606274891186
2,6, 1, 6, 0,10, 0.00,60.00,Saturday
463,19.25163681353826
464,20.000000057454615
466,2.144915293163767
2,6, 1, 6, 0,11, 0.00,60.00,Saturday
463,19.238786587427194
464,20.00000000162693
466,5.794941223083915
2,6, 1, 6, 0,12, 0.00,60.00,Saturday
463,19.25042210150848
464,20.000000000036086
466,9.360331064741603
2,6, 1, 6, 0,13, 0.00,60.00,Saturday
463,19.309477145325546
464,20.000000000000804
466,10.930430276616895
2,6, 1, 6, 0,14, 0.00,60.00,Saturday
463,19.367266578669129
464,20.000012112907414
466,11.144976770454205
2,6, 1, 6, 0,15, 0.00,60.00,Saturday
463,19.413343783924323
464,20.000008306657525
466,10.677910936303974
2,6, 1, 6, 0,16, 0.00,60.00,Saturday
463,19.45454498023602
464,20.000000162680686
466,9.389986424136952
2,6, 1, 6, 0,17, 0.00,60.00,Saturday
463,19.516727048207966
464,20.00000000466432
466,7.306818929316658
2,6, 1, 6, 0,18, 0.00,60.00,Saturday
463,19.521465348505737
464,20.000000000142
466,4.8647407078789028
2,6, 1, 6, 0,19, 0.00,60.00,Saturday
463,19.52074564764178
464,20.00000000000483
466,2.322464288623291
2,6, 1, 6, 0,20, 0.00,60.00,Saturday
463,19.504096485463866
464,20.000039455193808
466,0.4164922650534965
2,6, 1, 6, 0,21, 0.00,60.00,Saturday
463,19.458381198373674
464,20.000039623406818
466,-1.3045075282779036
2,6, 1, 6, 0,22, 0.00,60.00,Saturday
463,19.435778749104139
464,20.000053097280089
466,-2.9085672282384067
2,6, 1, 6, 0,23, 0.00,60.00,Saturday
463,19.378867623430808
464,20.000154958237127
466,-3.9891780619004697
2,6, 1, 6, 0,24, 0.00,60.00,Saturday
463,19.338208790127476
464,20.000108941456689
466,-4.832264321323899
2,7, 1, 7, 0, 1, 0.00,60.00,Sunday
463,19.287349405225549
464,20.000016913640235
466,-5.438557247528574
2,7, 1, 7, 0, 2, 0.00,60.00,Sunday
463,19.21943108080369
464,20.000001009676287
466,-5.795681365202208
2,7, 1, 7, 0, 3, 0.00,60.00,Sunday
463,19.209238622109355
464,20.000000066827007
466,-6.380077047217875
2,7, 1, 7, 0, 4, 0.00,60.00,Sunday
463,19.17892802689804
464,20.000000004718918
466,-7.211997996757923
2,7, 1, 7, 0, 5, 0.00,60.00,Sunday
463,19.159931777918027
464,20.000000000364929
466,-8.303967556988419
2,7, 1, 7, 0, 6, 0.00,60.00,Sunday
463,19.075704848554687
464,20.000024554377267
466,-8.942917507311409
2,7, 1, 7, 0, 7, 0.00,60.00,Sunday
463,19.032602953596859
464,20.00000185897442
466,-9.343999385098505
2,7, 1, 7, 0, 8, 0.00,60.00,Sunday
463,18.868034098632074
464,20.00000010833013
466,-8.054567471710865
2,7, 1, 7, 0, 9, 0.00,60.00,Sunday
463,18.889981241163424
464,20.000000005929715
466,-5.856819034875242
2,7, 1, 7, 0,10, 0.00,60.00,Sunday
463,18.935401685410743
464,20.000000000305297
466,-3.3861674102012078
2,7, 1, 7, 0,11, 0.00,60.00,Sunday
463,18.982975574985827
464,20.0000000000143
466,-0.9507831171020431
2,7, 1, 7, 0,12, 0.00,60.00,Sunday
463,19.040086038628187
464,20.00000000000063
466,1.4788081153955706
2,7, 1, 7, 0,13, 0.00,60.00,Sunday
463,19.116487979113136
464,20.000000000000055
466,3.63252399525212
2,7, 1, 7, 0,14, 0.00,60.00,Sunday
463,19.201123953102934
464,20.00000000000003
466,5.131550710347522
2,7, 1, 7, 0,15, 0.00,60.00,Sunday
463,19.276153834935437
464,20.000000000000065
466,5.7816229883746319
2,7, 1, 7, 0,16, 0.00,60.00,Sunday
463,19.33809445841156
464,20.000000000000076
466,5.753000297737052
2,7, 1, 7, 0,17, 0.00,60.00,Sunday
463,19.381071404874036
464,20.000000000000047
466,5.387650220806905
2,7, 1, 7, 0,18, 0.00,60.00,Sunday
463,19.38895766124071
464,20.000000000000026
466,5.090640845627927
2,7, 1, 7, 0,19, 0.00,60.00,Sunday
463,19.39254703775301
464,19.999999999999994
466,4.7669210001406949
2,7, 1, 7, 0,20, 0.00,60.00,Sunday
463,19.410204715819817
464,20.000000000000026
466,4.403853434209702
2,7, 1, 7, 0,21, 0.00,60.00,Sunday
463,19.43551014124036
464,19.999999999999984
466,3.77027147217231
2,7, 1, 7, 0,22, 0.00,60.00,Sunday
463,19.449298044159105
464,20.000000000000033
466,2.5305547076838734
2,7, 1, 7, 0,23, 0.00,60.00,Sunday
463,19.437248004978529
464,20.000000000000104
466,1.3912638812983838
2,7, 1, 7, 0,24, 0.00,60.00,Sunday
463,19.402606106550395
464,20.00000138966902
466,1.1225973354288188
2,8, 1, 8, 0, 1, 0.00,60.00,Monday
463,19.390687556920953
464,20.000002785908383
466,1.3079684744892027
2,8, 1, 8, 0, 2, 0.00,60.00,Monday
463,19.38625148278047
464,20.00000012021537
466,1.4097042822568982
2,8, 1, 8, 0, 3, 0.00,60.00,Monday
463,19.391659227696495
464,20.000000005661879
466,1.170164939840556
2,8, 1, 8, 0, 4, 0.00,60.00,Monday
463,19.42156802949483
464,20.00000000032587
466,0.7452092225392536
2,8, 1, 8, 0, 5, 0.00,60.00,Monday
463,19.38746873359612
464,20.000000000019076
466,0.24115919611710896
2,8, 1, 8, 0, 6, 0.00,60.00,Monday
463,19.33066818260492
464,20.000000000000918
466,-0.5778283418662674
2,8, 1, 8, 0, 7, 0.00,60.00,Monday
463,19.315502655694993
464,20.00000000000011
466,-1.6075180165929029
2,8, 1, 8, 0, 8, 0.00,60.00,Monday
463,19.247861494200895
464,19.99999999999997
466,-2.0582405586875458
2,8, 1, 8, 0, 9, 0.00,60.00,Monday
463,19.171534822092668
464,20.000000000000069
466,-0.2887149984003343
2,8, 1, 8, 0,10, 0.00,60.00,Monday
463,19.123191472565496
464,20.00000000000006
466,2.788800995307532
2,8, 1, 8, 0,11, 0.00,60.00,Monday
463,19.147395654187528
464,20.000000000000008
466,6.579198933982031
2,8, 1, 8, 0,12, 0.00,60.00,Monday
463,19.180946568930879
464,19.99999999999999
466,10.060119058416172
2,8, 1, 8, 0,13, 0.00,60.00,Monday
463,19.199526672357498
464,19.999999999999998
466,13.194918811918904
2,8, 1, 8, 0,14, 0.00,60.00,Monday
463,19.198313723164867
464,19.999999999999998
466,15.686969916684064
2,8, 1, 8, 0,15, 0.00,60.00,Monday
463,19.208872315408948
464,20.000000000000005
466,16.625206853069828
2,8, 1, 8, 0,16, 0.00,60.00,Monday
463,19.206618378430439
464,20.002296544612518
466,15.856533966010295
2,8, 1, 8, 0,17, 0.00,60.00,Monday
463,19.26401617935851
464,20.000018732258245
466,13.59433127386866
2,8, 1, 8, 0,18, 0.00,60.00,Monday
463,19.355656784676687
464,20.00000034927705
466,10.282949151786666
2,8, 1, 8, 0,19, 0.00,60.00,Monday
463,19.428961658031935
464,20.000002124217475
466,7.084470432298
2,8, 1, 8, 0,20, 0.00,60.00,Monday
463,19.468820348479519
464,20.000047795930106
466,4.57450126797495
2,8, 1, 8, 0,21, 0.00,60.00,Monday
463,19.45865030836397
464,20.00004652992375
466,2.776118674884404
2,8, 1, 8, 0,22, 0.00,60.00,Monday
463,19.466249721304569
464,20.000034716302538
466,1.4263430524624148
2,8, 1, 8, 0,23, 0.00,60.00,Monday
463,19.436805859658507
464,20.000025807925807
466,0.44953446153066298
2,8, 1, 8, 0,24, 0.00,60.00,Monday
463,19.441331835982799
464,20.000031975827626
466,-0.35680735400263288
2,9, 1, 9, 0, 1, 0.00,60.00,Tuesday
463,19.422120844896566
464,20.00002904496825
466,-1.07904352618375
2,9, 1, 9, 0, 2, 0.00,60.00,Tuesday
463,19.37967239734689
464,20.000025057795125
466,-1.6838786585672586
2,9, 1, 9, 0, 3, 0.00,60.00,Tuesday
463,19.34212495130383
464,20.000021386706068
466,-2.1286580742340415
2,9, 1, 9, 0, 4, 0.00,60.00,Tuesday
463,19.309277172917
464,20.000019217841787
466,-2.4349307510078059
2,9, 1, 9, 0, 5, 0.00,60.00,Tuesday
463,19.277882871760398
464,20.0000181460856
466,-2.8179292438882586
2,9, 1, 9, 0, 6, 0.00,60.00,Tuesday
463,19.253263145280604
464,20.000019017488069
466,-3.105980884639403
2,9, 1, 9, 0, 7, 0.00,60.00,Tuesday
463,19.22471631911235
464,20.00001259640419
466,-4.111180680213164
2,9, 1, 9, 0, 8, 0.00,60.00,Tuesday
463,19.15398710575277
464,20.000014975092559
466,-4.2354154542437449
2,9, 1, 9, 0, 9, 0.00,60.00,Tuesday
463,19.090559072308527
464,20.000014844995229
466,-1.963376636699899
2,9, 1, 9, 0,10, 0.00,60.00,Tuesday
463,19.07539087743391
464,20.00000073138107
466,1.1348291679158518
2,9, 1, 9, 0,11, 0.00,60.00,Tuesday
463,19.092008496562369
464,20.000000019160763
466,4.8501813105563669
2,9, 1, 9, 0,12, 0.00,60.00,Tuesday
463,19.134858518788055
464,20.000000000438744
466,8.256529961093357
2,9, 1, 9, 0,13, 0.00,60.00,Tuesday
463,19.19635412571521
464,20.00000000000889
466,10.56440879251144
2,9, 1, 9, 0,14, 0.00,60.00,Tuesday
463,19.248562711048597
464,20.000000000000186
466,11.76405307431684
2,9, 1, 9, 0,15, 0.00,60.00,Tuesday
463,19.281068341861315
464,20.00000000000003
466,12.16196017534787
2,9, 1, 9, 0,16, 0.00,60.00,Tuesday
463,19.31957860323243
464,20.000000000000019
466,11.52509494520849
2,9, 1, 9, 0,17, 0.00,60.00,Tuesday
463,19.38187471731015
464,19.999999999999998
466,9.796253530671005
2,9, 1, 9, 0,18, 0.00,60.00,Tuesday
463,19.437916109024888
464,19.999999999999966
466,7.302184097497341
2,9, 1, 9, 0,19, 0.00,60.00,Tuesday
463,19.468581844201919
464,20.000005241266437
466,4.824722323461061
2,9, 1, 9, 0,20, 0.00,60.00,Tuesday
463,19.47001207136341
464,20.000021735673909
466,3.1129741772674377
2,9, 1, 9, 0,21, 0.00,60.00,Tuesday
463,19.48308431554411
464,20.000046177310158
466,1.6699304836289615
2,9, 1, 9, 0,22, 0.00,60.00,Tuesday
463,19.467953635140625
464,20.00004670410982
466,0.5055319748828225
2,9, 1, 9, 0,23, 0.00,60.00,Tuesday
463,19.44848721976575
464,20.00004844336816
466,-0.5014531323786347
2,9, 1, 9, 0,24, 0.00,60.00,Tuesday
463,19.438654280553043
464,20.000052774108125
466,-1.520400412069968
2,10, 1,10, 0, 1, 0.00,60.00,Wednesday
463,19.389115798778627
464,20.000071924713784
466,-2.318479614888173
2,10, 1,10, 0, 2, 0.00,60.00,Wednesday
463,19.34344888019163
464,20.00005770334016
466,-3.0161989588224435
2,10, 1,10, 0, 3, 0.00,60.00,Wednesday
463,19.292199881213468
464,20.00002745524849
466,-3.6270077586566358
2,10, 1,10, 0, 4, 0.00,60.00,Wednesday
463,19.272150834274354
464,20.00001414275941
466,-4.134594058578817
2,10, 1,10, 0, 5, 0.00,60.00,Wednesday
463,19.235894627939325
464,20.000002404520314
466,-4.488469972071604
2,10, 1,10, 0, 6, 0.00,60.00,Wednesday
463,19.202926784832074
464,20.00000014548573
466,-4.951957077797703
2,10, 1,10, 0, 7, 0.00,60.00,Wednesday
463,19.149606873308124
464,20.000000008338977
466,-5.278206732169612
2,10, 1,10, 0, 8, 0.00,60.00,Wednesday
463,19.118072396766725
464,20.000000000459936
466,-4.97728952724288
2,10, 1,10, 0, 9, 0.00,60.00,Wednesday
463,19.044581128202475
464,20.000000000020945
466,-2.9096082143565358
2,10, 1,10, 0,10, 0.00,60.00,Wednesday
463,19.031805085316493
464,20.000000000000889
466,0.07408430279127587
2,10, 1,10, 0,11, 0.00,60.00,Wednesday
463,19.033702172820975
464,20.00001379544095
466,4.404147701215028
2,10, 1,10, 0,12, 0.00,60.00,Wednesday
463,19.034055889129147
464,20.000017926647329
466,8.717734224378474
2,10, 1,10, 0,13, 0.00,60.00,Wednesday
463,19.048301800084418