Program Version,EnergyPlus, Version 9.2.0-921312fa1d, YMD=2019.12.03 16:44
1,5,Environment Title[],Latitude[deg],Longitude[deg],Time Zone[],Elevation[m]
2,8,Day of Simulation[],Month[],Day of Month[],DST Indicator[1=yes 0=no],Hour[],StartMinute[],EndMinute[],DayType
3,5,Cumulative Day of Simulation[],Month[],Day of Month[],DST Indicator[1=yes 0=no],DayType  ! When Daily Report Variables Requested
4,2,Cumulative Days of Simulation[],Month[]  ! When Monthly Report Variables Requested
5,1,Cumulative Days of Simulation[] ! When Run Period Report Variables Requested
6,1,Calendar Year of Simulation[] ! When Annual Report Variables Requested
313,11,EMS,central ac and furnace supply fan cool disaggregate [J] !RunPeriod [Value,Min,Month,Day,Hour,Minute,Max,Month,Day,Hour,Minute]
314,9,EMS,central ac and furnace supply fan cool disaggregate [J] !Monthly [Value,Min,Day,Hour,Minute,Max,Day,Hour,Minute]
315,11,EMS,central ac and furnace supply fan heat disaggregate [J] !RunPeriod [Value,Min,Month,Day,Hour,Minute,Max,Month,Day,Hour,Minute]
316,9,EMS,central ac and furnace supply fan heat disaggregate [J] !Monthly [Value,Min,Day,Hour,Minute,Max,Day,Hour,Minute]
317,11,EMS,clg_ceilings_outvar [J] !RunPeriod [Value,Min,Month,Day,Hour,Minute,Max,Month,Day,Hour,Minute]
318,11,EMS,clg_doors_outvar [J] !RunPeriod [Value,Min,Month,Day,Hour,Minute,Max,Month,Day,Hour,Minute]
319,11,EMS,clg_ducts_outvar [J] !RunPeriod [Value,Min,Month,Day,Hour,Minute,Max,Month,Day,Hour,Minute]
320,11,EMS,clg_floors_outvar [J] !RunPeriod [Value,Min,Month,Day,Hour,Minute,Max,Month,Day,Hour,Minute]
321,11,EMS,clg_foundation_walls_outvar [J] !RunPeriod [Value,Min,Month,Day,Hour,Minute,Max,Month,Day,Hour,Minute]
322,11,EMS,clg_infil_outvar [J] !RunPeriod [Value,Min,Month,Day,Hour,Minute,Max,Month,Day,Hour,Minute]
323,11,EMS,clg_internal_mass_outvar [J] !RunPeriod [Value,Min,Month,Day,Hour,Minute,Max,Month,Day,Hour,Minute]
324,11,EMS,clg_intgains_outvar [J] !RunPeriod [Value,Min,Month,Day,Hour,Minute,Max,Month,Day,Hour,Minute]
325,11,EMS,clg_mechvent_outvar [J] !RunPeriod [Value,Min,Month,Day,Hour,Minute,Max,Month,Day,Hour,Minute]
326,11,EMS,clg_natvent_outvar [J] !RunPeriod [Value,Min,Month,Day,Hour,Minute,Max,Month,Day,Hour,Minute]
327,11,EMS,clg_rim_joists_outvar [J] !RunPeriod [Value,Min,Month,Day,Hour,Minute,Max,Month,Day,Hour,Minute]
328,11,EMS,clg_roofs_outvar [J] !RunPeriod [Value,Min,Month,Day,Hour,Minute,Max,Month,Day,Hour,Minute]
329,11,EMS,clg_skylights_outvar [J] !RunPeriod [Value,Min,Month,Day,Hour,Minute,Max,Month,Day,Hour,Minute]
330,11,EMS,clg_slabs_outvar [J] !RunPeriod [Value,Min,Month,Day,Hour,Minute,Max,Month,Day,Hour,Minute]
331,11,EMS,clg_walls_outvar [J] !RunPeriod [Value,Min,Month,Day,Hour,Minute,Max,Month,Day,Hour,Minute]
332,11,EMS,clg_windows_outvar [J] !RunPeriod [Value,Min,Month,Day,Hour,Minute,Max,Month,Day,Hour,Minute]
333,11,EMS,htg_ceilings_outvar [J] !RunPeriod [Value,Min,Month,Day,Hour,Minute,Max,Month,Day,Hour,Minute]
334,11,EMS,htg_doors_outvar [J] !RunPeriod [Value,Min,Month,Day,Hour,Minute,Max,Month,Day,Hour,Minute]
335,11,EMS,htg_ducts_outvar [J] !RunPeriod [Value,Min,Month,Day,Hour,Minute,Max,Month,Day,Hour,Minute]
336,11,EMS,htg_floors_outvar [J] !RunPeriod [Value,Min,Month,Day,Hour,Minute,Max,Month,Day,Hour,Minute]
337,11,EMS,htg_foundation_walls_outvar [J] !RunPeriod [Value,Min,Month,Day,Hour,Minute,Max,Month,Day,Hour,Minute]
338,11,EMS,htg_infil_outvar [J] !RunPeriod [Value,Min,Month,Day,Hour,Minute,Max,Month,Day,Hour,Minute]
339,11,EMS,htg_internal_mass_outvar [J] !RunPeriod [Value,Min,Month,Day,Hour,Minute,Max,Month,Day,Hour,Minute]
340,11,EMS,htg_intgains_outvar [J] !RunPeriod [Value,Min,Month,Day,Hour,Minute,Max,Month,Day,Hour,Minute]
341,11,EMS,htg_mechvent_outvar [J] !RunPeriod [Value,Min,Month,Day,Hour,Minute,Max,Month,Day,Hour,Minute]
342,11,EMS,htg_natvent_outvar [J] !RunPeriod [Value,Min,Month,Day,Hour,Minute,Max,Month,Day,Hour,Minute]
343,11,EMS,htg_rim_joists_outvar [J] !RunPeriod [Value,Min,Month,Day,Hour,Minute,Max,Month,Day,Hour,Minute]
344,11,EMS,htg_roofs_outvar [J] !RunPeriod [Value,Min,Month,Day,Hour,Minute,Max,Month,Day,Hour,Minute]
345,11,EMS,htg_skylights_outvar [J] !RunPeriod [Value,Min,Month,Day,Hour,Minute,Max,Month,Day,Hour,Minute]
346,11,EMS,htg_slabs_outvar [J] !RunPeriod [Value,Min,Month,Day,Hour,Minute,Max,Month,Day,Hour,Minute]
347,11,EMS,htg_walls_outvar [J] !RunPeriod [Value,Min,Month,Day,Hour,Minute,Max,Month,Day,Hour,Minute]
348,11,EMS,htg_windows_outvar [J] !RunPeriod [Value,Min,Month,Day,Hour,Minute,Max,Month,Day,Hour,Minute]
349,11,EMS,water heater EC adjustment outvar [J] !RunPeriod [Value,Min,Month,Day,Hour,Minute,Max,Month,Day,Hour,Minute]
457,1,CENTRAL AC AND FURNACE AIRLOOP RET AIR ZONE,Zone Mean Air Temperature [C] !Hourly
458,1,LIVING,Zone Mean Air Temperature [C] !Hourly
460,1,UNVENTED ATTIC,Zone Mean Air Temperature [C] !Hourly
768,11,FURNACE HTG COIL,Heating Coil Gas Energy [J] !RunPeriod [Value,Min,Month,Day,Hour,Minute,Max,Month,Day,Hour,Minute]
832,11,CENTRAL AC CLG COIL,Cooling Coil Electric Energy [J] !RunPeriod [Value,Min,Month,Day,Hour,Minute,Max,Month,Day,Hour,Minute]
1059,11,WATER USE CONNECTIONS 1,Water Use Connections Plant Hot Water Energy [J] !RunPeriod [Value,Min,Month,Day,Hour,Minute,Max,Month,Day,Hour,Minute]
1096,11,WATER HEATER,Water Heater Heat Loss Energy [J] !RunPeriod [Value,Min,Month,Day,Hour,Minute,Max,Month,Day,Hour,Minute]
1112,11,WATER HEATER,Water Heater Electric Energy [J] !RunPeriod [Value,Min,Month,Day,Hour,Minute,Max,Month,Day,Hour,Minute]
1150,11,WATER HEATER,Water Heater Off Cycle Parasitic Electric Energy [J] !RunPeriod [Value,Min,Month,Day,Hour,Minute,Max,Month,Day,Hour,Minute]
1152,11,WATER HEATER,Water Heater On Cycle Parasitic Electric Energy [J] !RunPeriod [Value,Min,Month,Day,Hour,Minute,Max,Month,Day,Hour,Minute]
1315,11,CENTRAL AC CLG COIL,Cooling Coil Crankcase Heater Electric Energy [J] !RunPeriod [Value,Min,Month,Day,Hour,Minute,Max,Month,Day,Hour,Minute]
End of Data Dictionary
1,RUN PERIOD 1,  39.83,-104.65,  -7.00,1650.00
2,1, 1, 1, 0, 1, 0.00,60.00,Monday
457,22.54451835018971
458,20.004407256976653
460,-7.706591405659762
2,1, 1, 1, 0, 2, 0.00,60.00,Monday
457,22.52371198667094
458,20.00011171179976
460,-10.274293160431168
2,1, 1, 1, 0, 3, 0.00,60.00,Monday
457,22.493526539895116
458,20.000002881025396
460,-12.22053568728228
2,1, 1, 1, 0, 4, 0.00,60.00,Monday
457,22.455860436379774
458,20.000000090189397
460,-13.545128195544012
2,1, 1, 1, 0, 5, 0.00,60.00,Monday
457,22.41301780606824
458,20.00000000312695
460,-14.312916645898433
2,1, 1, 1, 0, 6, 0.00,60.00,Monday
457,22.36863441496096
458,20.000000000110366
460,-14.548911078947582
2,1, 1, 1, 0, 7, 0.00,60.00,Monday
457,22.324774246033518
458,20.000000000003938
460,-14.42373900764691
2,1, 1, 1, 0, 8, 0.00,60.00,Monday
457,22.28279460412434
458,20.000003285751946
460,-13.473065251288924
2,1, 1, 1, 0, 9, 0.00,60.00,Monday
457,22.244319808209537
458,20.000013399046894
460,-11.064642376311428
2,1, 1, 1, 0,10, 0.00,60.00,Monday
457,22.215605284774786
458,20.000009300222936
460,-6.399174724961721
2,1, 1, 1, 0,11, 0.00,60.00,Monday
457,22.198739923547668
458,20.00000455237575
460,-0.6441173306783261
2,1, 1, 1, 0,12, 0.00,60.00,Monday
457,22.188678935224396
458,20.00000334192697
460,4.584418982972456
2,1, 1, 1, 0,13, 0.00,60.00,Monday
457,22.17983633109113
458,20.00000335775635
460,7.637011278765144
2,1, 1, 1, 0,14, 0.00,60.00,Monday
457,22.170093883343488
458,20.000002908105289
460,9.097878868522008
2,1, 1, 1, 0,15, 0.00,60.00,Monday
457,22.161544786854454
458,20.000000035328364
460,9.561867709235598
2,1, 1, 1, 0,16, 0.00,60.00,Monday
457,22.153139684733188
458,20.000000000454539
460,8.803792937672317
2,1, 1, 1, 0,17, 0.00,60.00,Monday
457,22.142041442497939
458,20.000000000008155
460,6.535525005132478
2,1, 1, 1, 0,18, 0.00,60.00,Monday
457,22.125665767386577
458,20.000001277452655
460,3.9158669156361309
2,1, 1, 1, 0,19, 0.00,60.00,Monday
457,22.103450572580724
458,20.00002096521695
460,1.2274588977783077
2,1, 1, 1, 0,20, 0.00,60.00,Monday
457,22.078553234302274
458,20.0000607057883
460,-0.7912050526585911
2,1, 1, 1, 0,21, 0.00,60.00,Monday
457,22.052903982962854
458,20.00004611567777
460,-2.5758860777357039
2,1, 1, 1, 0,22, 0.00,60.00,Monday
457,22.025261768218596
458,20.000023681482945
460,-4.027275136939581
2,1, 1, 1, 0,23, 0.00,60.00,Monday
457,21.994025624488896
458,20.000019293348627
460,-4.939700385016539
2,1, 1, 1, 0,24, 0.00,60.00,Monday
457,21.955643917981285
458,20.0000121237713
460,-5.096176709946507
2,2, 1, 2, 0, 1, 0.00,60.00,Tuesday
457,21.912543032361218
458,20.000000631293998
460,-4.781984457011248
2,2, 1, 2, 0, 2, 0.00,60.00,Tuesday
457,21.8688934369696
458,20.000000033296386
460,-4.7018944365449
2,2, 1, 2, 0, 3, 0.00,60.00,Tuesday
457,21.825482967439869
458,20.000000001787755
460,-4.7856165844923119
2,2, 1, 2, 0, 4, 0.00,60.00,Tuesday
457,21.780403431788849
458,20.00000000010388
460,-5.0767329567384069
2,2, 1, 2, 0, 5, 0.00,60.00,Tuesday
457,21.73703975020565
458,20.000000000005703
460,-5.4230415869597838
2,2, 1, 2, 0, 6, 0.00,60.00,Tuesday
457,21.695047878916549
458,20.000000000000296
460,-5.88804153437183
2,2, 1, 2, 0, 7, 0.00,60.00,Tuesday
457,21.655016278465494
458,20.00000000000007
460,-5.9921842588159619
2,2, 1, 2, 0, 8, 0.00,60.00,Tuesday
457,21.618910281860545
458,20.00000000000003
460,-5.727979620105635
2,2, 1, 2, 0, 9, 0.00,60.00,Tuesday
457,21.586107432191406
458,20.000000000000008
460,-4.356070441547956
2,2, 1, 2, 0,10, 0.00,60.00,Tuesday
457,21.560249283561264
458,19.99999999999998
460,-0.8926151867643617
2,2, 1, 2, 0,11, 0.00,60.00,Tuesday
457,21.544416412116026
458,20.000000000000026
460,4.079934357077601
2,2, 1, 2, 0,12, 0.00,60.00,Tuesday
457,21.535785538143153
458,20.000000000000019
460,9.149798175927416
2,2, 1, 2, 0,13, 0.00,60.00,Tuesday
457,21.530520114344108
458,19.999999999999994
460,12.575925284561106
2,2, 1, 2, 0,14, 0.00,60.00,Tuesday
457,21.526340724711365
458,19.999999999999987
460,14.62395104897679
2,2, 1, 2, 0,15, 0.00,60.00,Tuesday
457,21.52383174673003
458,19.999999999999987
460,15.867423547272188
2,2, 1, 2, 0,16, 0.00,60.00,Tuesday
457,21.520497053064309
458,19.999999999999998
460,15.319870097618998
2,2, 1, 2, 0,17, 0.00,60.00,Tuesday
457,21.515995938433997
458,20.00000221223167
460,12.955810740155146
2,2, 1, 2, 0,18, 0.00,60.00,Tuesday
457,21.51030234139603
458,20.000002831986959
460,10.150244834811423
2,2, 1, 2, 0,19, 0.00,60.00,Tuesday
457,21.502019098660406
458,20.000008108122878
460,7.231808775770475
2,2, 1, 2, 0,20, 0.00,60.00,Tuesday
457,21.491331080396355
458,20.000017015999626
460,4.832741768692533
2,2, 1, 2, 0,21, 0.00,60.00,Tuesday
457,21.47762234352216
458,20.00002495042009
460,2.7528733579562836
2,2, 1, 2, 0,22, 0.00,60.00,Tuesday
457,21.462735509873487
458,20.000020563621509
460,1.056985707446379
2,2, 1, 2, 0,23, 0.00,60.00,Tuesday
457,21.447721049173749
458,20.000015641198649
460,-0.4830826900430064
2,2, 1, 2, 0,24, 0.00,60.00,Tuesday
457,21.430066441937915
458,20.00001473532563
460,-1.4219861635806955
2,3, 1, 3, 0, 1, 0.00,60.00,Wednesday
457,21.409237878412083
458,20.000033870960626
460,-1.752432200224101
2,3, 1, 3, 0, 2, 0.00,60.00,Wednesday
457,21.385778144119646
458,20.000026213558816
460,-1.7889215893439504
2,3, 1, 3, 0, 3, 0.00,60.00,Wednesday
457,21.36035160198499
458,20.000008336920567
460,-1.781902202530941
2,3, 1, 3, 0, 4, 0.00,60.00,Wednesday
457,21.333032958103524
458,20.000000365709167
460,-1.8873461734447557
2,3, 1, 3, 0, 5, 0.00,60.00,Wednesday
457,21.30405356711401
458,20.000000016784683
460,-1.9723827430878816
2,3, 1, 3, 0, 6, 0.00,60.00,Wednesday
457,21.274216486544593
458,20.000000000784917
460,-1.8000213526211524
2,3, 1, 3, 0, 7, 0.00,60.00,Wednesday
457,21.2456201637609
458,20.00000000003462
460,-1.5511021936887318
2,3, 1, 3, 0, 8, 0.00,60.00,Wednesday
457,21.21827212031438
458,20.000000000001575
460,-1.249195788168388
2,3, 1, 3, 0, 9, 0.00,60.00,Wednesday
457,21.19490471444444
458,20.000000000000108
460,0.15549163786347415
2,3, 1, 3, 0,10, 0.00,60.00,Wednesday
457,21.175731890979166
458,19.999999999999987
460,2.701195749660524
2,3, 1, 3, 0,11, 0.00,60.00,Wednesday
457,21.161682238493808
458,20.000021885244558
460,6.549212851504456
2,3, 1, 3, 0,12, 0.00,60.00,Wednesday
457,21.151880401831645
458,20.000040448090237
460,10.093080601477324
2,3, 1, 3, 0,13, 0.00,60.00,Wednesday
457,21.143353703600796
458,20.000017477595219
460,11.889370006638748
2,3, 1, 3, 0,14, 0.00,60.00,Wednesday
457,21.13394929074652
458,20.00000044538238
460,12.267622843316345
2,3, 1, 3, 0,15, 0.00,60.00,Wednesday
457,21.12556801298061
458,20.000000009902349
460,11.613409400254162
2,3, 1, 3, 0,16, 0.00,60.00,Wednesday
457,21.11554273508161
458,20.000000000280854
460,9.476524837849138
2,3, 1, 3, 0,17, 0.00,60.00,Wednesday
457,21.102848782166537
458,20.000000000009675
460,6.379458616756802
2,3, 1, 3, 0,18, 0.00,60.00,Wednesday
457,21.08763369364644
458,20.00000000000036
460,3.1389848711831798
2,3, 1, 3, 0,19, 0.00,60.00,Wednesday
457,21.071015106796119
458,19.99999999999996
460,0.543336378002413
2,3, 1, 3, 0,20, 0.00,60.00,Wednesday
457,21.05324258429357
458,20.000000000000076
460,-1.6755214689998715
2,3, 1, 3, 0,21, 0.00,60.00,Wednesday
457,21.032156001647367
458,20.000070584309456
460,-3.6740609941787718
2,3, 1, 3, 0,22, 0.00,60.00,Wednesday
457,21.00683447511534
458,20.000051204293244
460,-5.2995183643889309
2,3, 1, 3, 0,23, 0.00,60.00,Wednesday
457,20.977308051080465
458,20.0000067325471
460,-6.735125631903036
2,3, 1, 3, 0,24, 0.00,60.00,Wednesday
457,20.943401397654197
458,20.000000416576957
460,-7.818828476931684
2,4, 1, 4, 0, 1, 0.00,60.00,Thursday
457,20.905622538830426
458,20.000000027683737
460,-8.773474676673198
2,4, 1, 4, 0, 2, 0.00,60.00,Thursday
457,20.863338496355515
458,20.000000002052276
460,-9.900404973715644
2,4, 1, 4, 0, 3, 0.00,60.00,Thursday
457,20.816942470386424
458,20.00000000015734
460,-10.923421166483625
2,4, 1, 4, 0, 4, 0.00,60.00,Thursday
457,20.769357242772324
458,20.000000000012098
460,-11.651895369884399
2,4, 1, 4, 0, 5, 0.00,60.00,Thursday
457,20.72200200070508
458,20.000000000001064
460,-12.221037702982887
2,4, 1, 4, 0, 6, 0.00,60.00,Thursday
457,20.675190813876595
458,20.000000000000154
460,-12.655103884411373
2,4, 1, 4, 0, 7, 0.00,60.00,Thursday
457,20.630196758291445
458,20.0
460,-13.2124356806065
2,4, 1, 4, 0, 8, 0.00,60.00,Thursday
457,20.588556906452579
458,20.00000000000005
460,-13.075488091354032
2,4, 1, 4, 0, 9, 0.00,60.00,Thursday
457,20.5515607553135
458,20.000000000000097
460,-11.42171184055927
2,4, 1, 4, 0,10, 0.00,60.00,Thursday
457,20.520192422912854
458,20.00004268636208
460,-7.8261376639783999
2,4, 1, 4, 0,11, 0.00,60.00,Thursday
457,20.49693741304943
458,20.000030887700598
460,-3.4655045070495178
2,4, 1, 4, 0,12, 0.00,60.00,Thursday
457,20.479048135555858
458,20.000008003000067
460,0.9091442110467011
2,4, 1, 4, 0,13, 0.00,60.00,Thursday
457,20.465026035313096
458,20.00002189218305
460,4.387016798609825
2,4, 1, 4, 0,14, 0.00,60.00,Thursday
457,20.45442321067225
458,20.000019165090273
460,6.891048622343652
2,4, 1, 4, 0,15, 0.00,60.00,Thursday
457,20.445990383961499
458,20.000013935740719
460,8.738285506998146
2,4, 1, 4, 0,16, 0.00,60.00,Thursday
457,20.438414420215318
458,20.000018343074474
460,9.59745467289542
2,4, 1, 4, 0,17, 0.00,60.00,Thursday
457,20.43124231961705
458,20.000019372956016
460,9.176757506379037
2,4, 1, 4, 0,18, 0.00,60.00,Thursday
457,20.4246332763876
458,20.00002142762389
460,7.980513220078404
2,4, 1, 4, 0,19, 0.00,60.00,Thursday
457,20.41818331860513
458,20.00002919291863
460,6.820634571202003
2,4, 1, 4, 0,20, 0.00,60.00,Thursday
457,20.411897655686987
458,20.00003257645208
460,5.931884202659507
2,4, 1, 4, 0,21, 0.00,60.00,Thursday
457,20.40558843179994
458,20.000038305059748
460,5.316672662211809
2,4, 1, 4, 0,22, 0.00,60.00,Thursday
457,20.39895035759472
458,20.000031102012444
460,4.746227583226174
2,4, 1, 4, 0,23, 0.00,60.00,Thursday
457,20.391884642720325
458,20.000027337447994
460,4.083203527771506
2,4, 1, 4, 0,24, 0.00,60.00,Thursday
457,20.384468055169824
458,20.000027163857174
460,4.556868387265229
2,5, 1, 5, 0, 1, 0.00,60.00,Friday
457,20.376824909094226
458,20.00002744809687
460,4.741429624471314
2,5, 1, 5, 0, 2, 0.00,60.00,Friday
457,20.368818424098433
458,20.00002055746793
460,5.272497613888202
2,5, 1, 5, 0, 3, 0.00,60.00,Friday
457,20.36176248469596
458,20.000023450521998
460,6.302543784384305
2,5, 1, 5, 0, 4, 0.00,60.00,Friday
457,20.355048820868317
458,20.000027947862575
460,6.864422621014066
2,5, 1, 5, 0, 5, 0.00,60.00,Friday
457,20.34851022111546
458,20.00002903965137
460,6.742939669330471
2,5, 1, 5, 0, 6, 0.00,60.00,Friday
457,20.34215006750072
458,20.00002912081023
460,6.58647044675219
2,5, 1, 5, 0, 7, 0.00,60.00,Friday
457,20.335186923123766
458,20.000039100992607
460,5.885783962560348
2,5, 1, 5, 0, 8, 0.00,60.00,Friday
457,20.32819038627864
458,20.00004905845813
460,5.705610742287821
2,5, 1, 5, 0, 9, 0.00,60.00,Friday
457,20.323407219007149
458,20.000037721868265
460,7.110074035305163
2,5, 1, 5, 0,10, 0.00,60.00,Friday
457,20.32052287132071
458,20.00001050313494
460,10.13247090406342
2,5, 1, 5, 0,11, 0.00,60.00,Friday
457,20.31895473140604
458,20.000007687228668
460,13.67395119130719
2,5, 1, 5, 0,12, 0.00,60.00,Friday
457,20.31835441578741
458,20.115735794611145
460,17.448505637661545
2,5, 1, 5, 0,13, 0.00,60.00,Friday
457,20.3183544076295
458,20.284265959110074
460,20.476997912776917
2,5, 1, 5, 0,14, 0.00,60.00,Friday
457,20.318354416828958
458,20.38716169886905
460,22.21402625357562
2,5, 1, 5, 0,15, 0.00,60.00,Friday
457,20.318354416829576
458,20.377551211708658
460,22.035092858965979
2,5, 1, 5, 0,16, 0.00,60.00,Friday
457,20.318354416829437
458,20.328349939024883
460,19.7913308993612
2,5, 1, 5, 0,17, 0.00,60.00,Friday
457,20.318354416829437
458,20.13138333065486
460,16.64828195890047
2,5, 1, 5, 0,18, 0.00,60.00,Friday
457,20.318354416829437
458,20.01924223363199
460,13.280755150058497
2,5, 1, 5, 0,19, 0.00,60.00,Friday
457,20.31805922089845
458,20.000102705353937
460,10.157963848247118
2,5, 1, 5, 0,20, 0.00,60.00,Friday
457,20.317106764088604
458,20.000039088563626
460,7.798149284114886
2,5, 1, 5, 0,21, 0.00,60.00,Friday
457,20.315137332549737
458,20.00002284587971
460,5.874574570297839
2,5, 1, 5, 0,22, 0.00,60.00,Friday
457,20.311888939521049
458,20.000006446523778
460,4.099689343952039
2,5, 1, 5, 0,23, 0.00,60.00,Friday
457,20.307641475721849
458,20.00001113247567
460,2.5348057702672408
2,5, 1, 5, 0,24, 0.00,60.00,Friday
457,20.302228352494358
458,20.000017013712083
460,1.4142454530831437
2,6, 1, 6, 0, 1, 0.00,60.00,Saturday
457,20.295295647745176
458,20.000010259769998
460,0.8785197478317546
2,6, 1, 6, 0, 2, 0.00,60.00,Saturday
457,20.287292743924863
458,20.000000338416386
460,0.7908166250624031
2,6, 1, 6, 0, 3, 0.00,60.00,Saturday
457,20.27873308470119
458,20.00000178964775
460,0.7095693757413708
2,6, 1, 6, 0, 4, 0.00,60.00,Saturday
457,20.269471957798964
458,20.000000066104968
460,0.44480356236975346
2,6, 1, 6, 0, 5, 0.00,60.00,Saturday
457,20.259186939038714
458,20.000000002559469
460,-0.2533150210113885
2,6, 1, 6, 0, 6, 0.00,60.00,Saturday
457,20.24778314800348
458,20.000000000110857
460,-0.9502267664155021
2,6, 1, 6, 0, 7, 0.00,60.00,Saturday
457,20.23511752584817
458,20.00006231558139
460,-1.147355687107442
2,6, 1, 6, 0, 8, 0.00,60.00,Saturday
457,20.222771894040365
458,20.000042816996218
460,-1.063574050585648
2,6, 1, 6, 0, 9, 0.00,60.00,Saturday
457,20.210828736546664
458,20.00000158497788
460,0.14921422444023428
2,6, 1, 6, 0,10, 0.00,60.00,Saturday
457,20.20094491869224
458,20.000000053973666
460,2.1080456373763365
2,6, 1, 6, 0,11, 0.00,60.00,Saturday
457,20.19329744143419
458,20.0000000014778
460,5.7661706742394449
2,6, 1, 6, 0,12, 0.00,60.00,Saturday
457,20.1884036734468
458,20.00000000003169
460,9.338218343699689
2,6, 1, 6, 0,13, 0.00,60.00,Saturday
457,20.185267881971936
458,20.00000000000069
460,10.914192631482969
2,6, 1, 6, 0,14, 0.00,60.00,Saturday
457,20.182478256613547
458,20.000012077853385
460,11.13306915436739
2,6, 1, 6, 0,15, 0.00,60.00,Saturday
457,20.179807027535156
458,20.000008333589656
460,10.66968872717404
2,6, 1, 6, 0,16, 0.00,60.00,Saturday
457,20.17711346727077
458,20.000000158925105
460,9.383510829405035
2,6, 1, 6, 0,17, 0.00,60.00,Saturday
457,20.17368999051607
458,20.000000004445157
460,7.301149020414698
2,6, 1, 6, 0,18, 0.00,60.00,Saturday
457,20.168765084492326
458,20.00000000013234
460,4.858692727649359
2,6, 1, 6, 0,19, 0.00,60.00,Saturday
457,20.163129207132305
458,20.00000000000447
460,2.3169486732742516
2,6, 1, 6, 0,20, 0.00,60.00,Saturday
457,20.15606605800922
458,20.00003943084961
460,0.41021702752983038
2,6, 1, 6, 0,21, 0.00,60.00,Saturday
457,20.147510303719366
458,20.000039636861407
460,-1.3120255638808558
2,6, 1, 6, 0,22, 0.00,60.00,Saturday
457,20.137827004746354
458,20.000053103091387
460,-2.917125930837724
2,6, 1, 6, 0,23, 0.00,60.00,Saturday
457,20.125612148569389
458,20.000155041062788
460,-4.000408732998282
2,6, 1, 6, 0,24, 0.00,60.00,Saturday
457,20.111766232222676
458,20.00010913701073
460,-4.846049605800429
2,7, 1, 7, 0, 1, 0.00,60.00,Sunday
457,20.095630818162154
458,20.00001687303016
460,-5.456288539148627
2,7, 1, 7, 0, 2, 0.00,60.00,Sunday
457,20.07784774886079
458,20.000000979521294
460,-5.817312194174443
2,7, 1, 7, 0, 3, 0.00,60.00,Sunday
457,20.05976558980004
458,20.000000062955185
460,-6.404091539839853
2,7, 1, 7, 0, 4, 0.00,60.00,Sunday
457,20.039312538805026
458,20.000000004317795
460,-7.2361581384301429
2,7, 1, 7, 0, 5, 0.00,60.00,Sunday
457,20.016903983921716
458,20.00000000032413
460,-8.335981671755305
2,7, 1, 7, 0, 6, 0.00,60.00,Sunday
457,19.991488183804614
458,20.000024380065367
460,-8.984811240813287
2,7, 1, 7, 0, 7, 0.00,60.00,Sunday
457,19.966565532533488
458,20.000001788600515
460,-9.38755929446843
2,7, 1, 7, 0, 8, 0.00,60.00,Sunday
457,19.94133250646765
458,20.000000100803424
460,-8.0990436359217
2,7, 1, 7, 0, 9, 0.00,60.00,Sunday
457,19.92372872703132
458,20.0000000053124
460,-5.894171667884575
2,7, 1, 7, 0,10, 0.00,60.00,Sunday
457,19.909091782366806
458,20.000000000263719
460,-3.4209090438285045
2,7, 1, 7, 0,11, 0.00,60.00,Sunday
457,19.896989828510188
458,20.00000000001179
460,-0.9809149687401607
2,7, 1, 7, 0,12, 0.00,60.00,Sunday
457,19.887475659320097
458,20.000000000000584
460,1.4546480459613674
2,7, 1, 7, 0,13, 0.00,60.00,Sunday
457,19.880263550388159
458,20.00000000000008
460,3.6156601310671028
2,7, 1, 7, 0,14, 0.00,60.00,Sunday
457,19.87458383951357
458,20.00000000000003
460,5.129912669756577
2,7, 1, 7, 0,15, 0.00,60.00,Sunday
457,19.869729089192526
458,19.99999999999999
460,5.777446113637446
2,7, 1, 7, 0,16, 0.00,60.00,Sunday
457,19.865306090317046
458,19.99999999999999
460,5.745777350541362
2,7, 1, 7, 0,17, 0.00,60.00,Sunday
457,19.860931040556193
458,20.00000000000006
460,5.380156157947218
2,7, 1, 7, 0,18, 0.00,60.00,Sunday
457,19.856307244549247
458,20.000000000000047
460,5.083139427901372
2,7, 1, 7, 0,19, 0.00,60.00,Sunday
457,19.852161494690536
458,20.000000000000044
460,4.759861616284604
2,7, 1, 7, 0,20, 0.00,60.00,Sunday
457,19.848573056864578
458,20.00000000000005
460,4.397171619362201
2,7, 1, 7, 0,21, 0.00,60.00,Sunday
457,19.845009002190179
458,20.000000000000008
460,3.7634487368964835
2,7, 1, 7, 0,22, 0.00,60.00,Sunday
457,19.840807276720754
458,20.00000000000003
460,2.5234797020806578
2,7, 1, 7, 0,23, 0.00,60.00,Sunday
457,19.835525746014438
458,19.999999999999969
460,1.3830085131661565
2,7, 1, 7, 0,24, 0.00,60.00,Sunday
457,19.82938851055671
458,20.00000133765307
460,1.114693531083508
2,8, 1, 8, 0, 1, 0.00,60.00,Monday
457,19.82358340421616
458,20.000002727481936
460,1.298699237089685
2,8, 1, 8, 0, 2, 0.00,60.00,Monday
457,19.817672213714738
458,20.00000011593739
460,1.4012712847572502
2,8, 1, 8, 0, 3, 0.00,60.00,Monday
457,19.811617032816817
458,20.00000000537947
460,1.1614358054688057
2,8, 1, 8, 0, 4, 0.00,60.00,Monday
457,19.805347685475419
458,20.00000000030536
460,0.7356081975517317
2,8, 1, 8, 0, 5, 0.00,60.00,Monday
457,19.796493152556143
458,20.000000000017818
460,0.23015588273720059
2,8, 1, 8, 0, 6, 0.00,60.00,Monday
457,19.786766858648045
458,20.000000000001003
460,-0.5892366542944836
2,8, 1, 8, 0, 7, 0.00,60.00,Monday
457,19.77792040580116
458,20.000000000000158
460,-1.6197809719203605
2,8, 1, 8, 0, 8, 0.00,60.00,Monday
457,19.767688248181039
458,20.00000000000005
460,-2.072394798993826
2,8, 1, 8, 0, 9, 0.00,60.00,Monday
457,19.758244159212756
458,19.99999999999996
460,-0.3010646609330297
2,8, 1, 8, 0,10, 0.00,60.00,Monday
457,19.75152812338694
458,20.000000000000055
460,2.781414602129331
2,8, 1, 8, 0,11, 0.00,60.00,Monday
457,19.748123483620828
458,20.000000000000055
460,6.567583707127834
2,8, 1, 8, 0,12, 0.00,60.00,Monday
457,19.746176581558556
458,19.99999999999998
460,10.05172142112753
2,8, 1, 8, 0,13, 0.00,60.00,Monday
457,19.745100502373565
458,20.000000000000005
460,13.190000637605169
2,8, 1, 8, 0,14, 0.00,60.00,Monday
457,19.74459827297276
458,20.0
460,15.683899366277924
2,8, 1, 8, 0,15, 0.00,60.00,Monday
457,19.744610537608854
458,20.000000000000005
460,16.62303440012148
2,8, 1, 8, 0,16, 0.00,60.00,Monday
457,19.744543314194144
458,20.00224474256205
460,15.855044228716603
2,8, 1, 8, 0,17, 0.00,60.00,Monday
457,19.74513412715326
458,20.00001797282365
460,13.593123069884113
2,8, 1, 8, 0,18, 0.00,60.00,Monday
457,19.745886303935177
458,20.000000329577344
460,10.281675298560466
2,8, 1, 8, 0,19, 0.00,60.00,Monday
457,19.745893603999457
458,20.000002087057614
460,7.082836852259667
2,8, 1, 8, 0,20, 0.00,60.00,Monday
457,19.744832651815945
458,20.000047822625523
460,4.572500453511227
2,8, 1, 8, 0,21, 0.00,60.00,Monday
457,19.7423460037769
458,20.000046589830985
460,2.773810794017367
2,8, 1, 8, 0,22, 0.00,60.00,Monday
457,19.74003502919161
458,20.000034735110945
460,1.423967916265626
2,8, 1, 8, 0,23, 0.00,60.00,Monday
457,19.736371256383927
458,20.000025796732
460,0.4466175418380129
2,8, 1, 8, 0,24, 0.00,60.00,Monday
457,19.733059387487246
458,20.000031965719619
460,-0.35999937927516725
2,9, 1, 9, 0, 1, 0.00,60.00,Tuesday
457,19.72826930550366
458,20.000029032127967
460,-1.0832372264697248
2,9, 1, 9, 0, 2, 0.00,60.00,Tuesday
457,19.72200571020348
458,20.000025028673674
460,-1.6890037868179864
2,9, 1, 9, 0, 3, 0.00,60.00,Tuesday
457,19.715143733336629
458,20.0000213441104
460,-2.134812335351419
2,9, 1, 9, 0, 4, 0.00,60.00,Tuesday
457,19.7077560663368
458,20.000019166744719
460,-2.4423339693810059
2,9, 1, 9, 0, 5, 0.00,60.00,Tuesday
457,19.699884215883747
458,20.000018092635949
460,-2.826856142827098
2,9, 1, 9, 0, 6, 0.00,60.00,Tuesday
457,19.69176272747402
458,20.000018964742887
460,-3.116475441608012
2,9, 1, 9, 0, 7, 0.00,60.00,Tuesday
457,19.683242208106436
458,20.000012544007288
460,-4.124128749728482
2,9, 1, 9, 0, 8, 0.00,60.00,Tuesday
457,19.673633422878298
458,20.000014926465199
460,-4.249636512606333
2,9, 1, 9, 0, 9, 0.00,60.00,Tuesday
457,19.6650816608654
458,20.00001480840499
460,-1.9774072779311663
2,9, 1, 9, 0,10, 0.00,60.00,Tuesday
457,19.659206805310629
458,20.00000070776567
460,1.125811325847781
2,9, 1, 9, 0,11, 0.00,60.00,Tuesday
457,19.655537512780819
458,20.000000018154453
460,4.834302398587409
2,9, 1, 9, 0,12, 0.00,60.00,Tuesday
457,19.653661429987634
458,20.000000000407284
460,8.244457723386251
2,9, 1, 9, 0,13, 0.00,60.00,Tuesday
457,19.6530106441388
458,20.000000000008105
460,10.556716606422797
2,9, 1, 9, 0,14, 0.00,60.00,Tuesday
457,19.652750156994299
458,20.000000000000136
460,11.758685015791949
2,9, 1, 9, 0,15, 0.00,60.00,Tuesday
457,19.652540042988343
458,20.0
460,12.158250724190842
2,9, 1, 9, 0,16, 0.00,60.00,Tuesday
457,19.652692800153298
458,20.000000000000008
460,11.522265414141569
2,9, 1, 9, 0,17, 0.00,60.00,Tuesday
457,19.65333848523055
458,20.000000000000019
460,9.794041094355836
2,9, 1, 9, 0,18, 0.00,60.00,Tuesday
457,19.65374892614256
458,20.000000000000005
460,7.30008610617061
2,9, 1, 9, 0,19, 0.00,60.00,Tuesday
457,19.65343127276334
458,20.000005240895925
460,4.822824398984443
2,9, 1, 9, 0,20, 0.00,60.00,Tuesday
457,19.65222097977634
458,20.0000217398462
460,3.111103009349711
2,9, 1, 9, 0,21, 0.00,60.00,Tuesday
457,19.651140911405198
458,20.00004618837637
460,1.6681236379937268
2,9, 1, 9, 0,22, 0.00,60.00,Tuesday
457,19.64890372856672
458,20.00004671784425
460,0.5035004281387007
2,9, 1, 9, 0,23, 0.00,60.00,Tuesday
457,19.64607967334312
458,20.000048445771357
460,-0.5036488587796408
2,9, 1, 9, 0,24, 0.00,60.00,Tuesday
457,19.64288725485797
458,20.000052769704376
460,-1.5229947133371705
2,10, 1,10, 0, 1, 0.00,60.00,Wednesday
457,19.637601192785728
458,20.00007191498904
460,-2.3219250141954337
2,10, 1,10, 0, 2, 0.00,60.00,Wednesday
457,19.63150509993857
458,20.000057684082998
460,-3.0203527174973048
2,10, 1,10, 0, 3, 0.00,60.00,Wednesday
457,19.624403529894047
458,20.000027409303106
460,-3.6326802817942376
2,10, 1,10, 0, 4, 0.00,60.00,Wednesday
457,19.617421222595657
458,20.000014080089195
460,-4.141215019378029
2,10, 1,10, 0, 5, 0.00,60.00,Wednesday
457,19.60914639469555
458,20.000002339086437
460,-4.49752113080191
2,10, 1,10, 0, 6, 0.00,60.00,Wednesday
457,19.600296250549595
458,20.000000139704534
460,-4.962918583406173
2,10, 1,10, 0, 7, 0.00,60.00,Wednesday
457,19.590445189405789
458,20.000000007896877
460,-5.291100572630199
2,10, 1,10, 0, 8, 0.00,60.00,Wednesday
457,19.581163999146616
458,20.00000000042892
460,-4.990788383973825
2,10, 1,10, 0, 9, 0.00,60.00,Wednesday
457,19.571391654468426
458,20.000000000019246
460,-2.9228381346304865
2,10, 1,10, 0,10, 0.00,60.00,Wednesday
457,19.56476596001335
458,20.000000000000758
460,0.06482728155411564
2,10, 1,10, 0,11, 0.00,60.00,Wednesday
457,19.560286517047858
458,20.00001373867598
460,4.399043475553214
2,10, 1,10, 0,12, 0.00,60.00,Wednesday
457,19.55770752611272
458,20.0000179324996
460,8.718827639748838
2,10, 1,10, 0,13, 0.00,60.00,Wednesday
457,19.55684549223937
458,20.00000093405031
460,13.12621898424623
2,10, 1,10, 0,14, 0.00,60.00,Wednesday
457,19.556908865047487
458,20.000000005321956
460,16.243132567326815