Program Version,EnergyPlus, Version 9.2.0-921312fa1d, YMD=2020.03.10 07:41
1,5,Environment Title[],Latitude[deg],Longitude[deg],Time Zone[],Elevation[m]
2,8,Day of Simulation[],Month[],Day of Month[],DST Indicator[1=yes 0=no],Hour[],StartMinute[],EndMinute[],DayType
3,5,Cumulative Day of Simulation[],Month[],Day of Month[],DST Indicator[1=yes 0=no],DayType  ! When Daily Meters Requested
4,2,Cumulative Days of Simulation[],Month[]  ! When Monthly Meters Requested
5,1,Cumulative Days of Simulation[] ! When Run Period Meters Requested
6,1,Calendar Year of Simulation[] ! When Annual Meters Requested
16,11,Electricity:Facility [J] !RunPeriod [Value,Min,Month,Day,Hour,Minute,Max,Month,Day,Hour,Minute]
809,11,Gas:Facility [J] !RunPeriod [Value,Min,Month,Day,Hour,Minute,Max,Month,Day,Hour,Minute]
107,11,interior lighting:InteriorLights:Electricity [J] !RunPeriod [Value,Min,Month,Day,Hour,Minute,Max,Month,Day,Hour,Minute]
28,11,ExteriorLights:Electricity [J] !RunPeriod [Value,Min,Month,Day,Hour,Minute,Max,Month,Day,Hour,Minute]
234,11,mech vent house fan:InteriorEquipment:Electricity [J] !RunPeriod [Value,Min,Month,Day,Hour,Minute,Max,Month,Day,Hour,Minute]
294,11,whole house fan:InteriorEquipment:Electricity [J] !RunPeriod [Value,Min,Month,Day,Hour,Minute,Max,Month,Day,Hour,Minute]
204,11,fridge:InteriorEquipment:Electricity [J] !RunPeriod [Value,Min,Month,Day,Hour,Minute,Max,Month,Day,Hour,Minute]
189,11,dishwasher:InteriorEquipment:Electricity [J] !RunPeriod [Value,Min,Month,Day,Hour,Minute,Max,Month,Day,Hour,Minute]
159,11,clothes washer:InteriorEquipment:Electricity [J] !RunPeriod [Value,Min,Month,Day,Hour,Minute,Max,Month,Day,Hour,Minute]
144,11,clothes dryer:InteriorEquipment:Electricity [J] !RunPeriod [Value,Min,Month,Day,Hour,Minute,Max,Month,Day,Hour,Minute]
174,11,cooking range:InteriorEquipment:Electricity [J] !RunPeriod [Value,Min,Month,Day,Hour,Minute,Max,Month,Day,Hour,Minute]
279,11,misc tv:InteriorEquipment:Electricity [J] !RunPeriod [Value,Min,Month,Day,Hour,Minute,Max,Month,Day,Hour,Minute]
264,11,misc plug loads:InteriorEquipment:Electricity [J] !RunPeriod [Value,Min,Month,Day,Hour,Minute,Max,Month,Day,Hour,Minute]
695,11,Heating:DistrictHeating [J] !RunPeriod [Value,Min,Month,Day,Hour,Minute,Max,Month,Day,Hour,Minute]
732,11,Cooling:DistrictCooling [J] !RunPeriod [Value,Min,Month,Day,Hour,Minute,Max,Month,Day,Hour,Minute]
12,1,Electricity:Facility [J] !Hourly
805,1,Gas:Facility [J] !Hourly
103,1,interior lighting:InteriorLights:Electricity [J] !Hourly
24,1,ExteriorLights:Electricity [J] !Hourly
230,1,mech vent house fan:InteriorEquipment:Electricity [J] !Hourly
290,1,whole house fan:InteriorEquipment:Electricity [J] !Hourly
200,1,fridge:InteriorEquipment:Electricity [J] !Hourly
185,1,dishwasher:InteriorEquipment:Electricity [J] !Hourly
155,1,clothes washer:InteriorEquipment:Electricity [J] !Hourly
140,1,clothes dryer:InteriorEquipment:Electricity [J] !Hourly
170,1,cooking range:InteriorEquipment:Electricity [J] !Hourly
275,1,misc tv:InteriorEquipment:Electricity [J] !Hourly
260,1,misc plug loads:InteriorEquipment:Electricity [J] !Hourly
End of Data Dictionary
1,RUN PERIOD 1,  39.83,-104.65,  -7.00,1650.00
2,1, 1, 1, 0, 1, 0.00,60.00,Monday
12,2442928.0308658645
24,13133.634023603743
103,177271.88606911564
140,107971.78633623042
155,0.0
170,33823.53604600406
185,0.0
200,214406.6124122581
230,0.0
260,1208423.3329248299
275,304933.84876410107
290,0.0
805,10649453.043190003
2,1, 1, 1, 0, 2, 0.00,60.00,Monday
12,2255871.954434872
24,7880.180414162213
103,106363.13164146894
140,64783.07180173816
155,0.0
170,33823.53604600406
185,0.0
200,209046.44710195173
230,0.0
260,1117791.5829554678
275,282063.8101067935
290,0.0
805,13333641.20516079
2,1, 1, 1, 0, 3, 0.00,60.00,Monday
12,2201599.145863163
24,5253.453609441477
103,70908.75442764597
140,43188.71453449208
155,0.0
170,19327.734883430905
185,0.0
200,203686.28179164505
230,0.0
260,1117791.5829554678
275,282063.8101067935
290,0.0
805,14658956.441973303
2,1, 1, 1, 0, 4, 0.00,60.00,Monday
12,2155547.0162266895
24,5253.453609441477
103,70908.75442764597
140,21594.35726724608
155,0.0
170,19327.734883430905
185,0.0
200,198326.11648133864
230,0.0
260,1087580.999632347
275,274440.4638876909
290,0.0
805,15642047.935817603
2,1, 1, 1, 0, 5, 0.00,60.00,Monday
12,2089534.4791850546
24,5840.658207808643
103,78834.5780400541
140,43188.71453449208
155,0.0
170,33823.53604600406
185,0.0
200,192965.95117103228
230,0.0
260,996949.2496629846
275,251570.42523038339
290,0.0
805,16074726.164266533
2,1, 1, 1, 0, 6, 0.00,60.00,Monday
12,2383145.9342811296
24,16026.080925005024
103,216312.83365792936
140,64783.07180173816
155,0.0
170,53151.2709294349
185,0.0
200,192965.95117103228
230,0.0
260,1087580.999632347
275,274440.4638876909
290,0.0
805,15629986.500608787
2,1, 1, 1, 0, 7, 0.00,60.00,Monday
12,3137647.8193723645
24,37624.814061416066
103,507842.8209344053
140,172754.85813796847
155,0.0
170,120798.34302144323
185,0.0
200,203686.28179164505
230,0.0
260,1299055.0828941924
275,327803.8874214086
290,0.0
805,15115596.971522365
2,1, 1, 1, 0, 8, 0.00,60.00,Monday
12,3681143.778833215
24,47613.232268258325
103,642661.9982612429
140,345509.7162759369
155,0.0
170,202941.21627602424
185,0.0
200,214406.6124122581
230,0.0
260,1419897.4161866753
275,358297.2722978187
290,0.0
805,14157213.843365493
2,1, 1, 1, 0, 9, 0.00,60.00,Monday
12,10761269.394256758
24,50599.49322596624
103,682969.2057954291
140,518264.57441390547
155,1309289.2512610367
170,222268.95115945536
185,0.0
200,219766.7777225645
230,0.0
260,1027159.8329861055
275,259193.77144948589
290,0.0
805,12344930.455386743
2,1, 1, 1, 0,10, 0.00,60.00,Monday
12,2704734.2689877476
24,52012.74062072695
103,702044.5836155546
140,734208.1470863654
155,0.0
170,231932.81860117054
185,0.0
200,219766.7777225645
230,0.0
260,694843.4164317773
275,175336.9630393581
290,0.0
805,7197150.086774237
2,1, 1, 1, 0,11, 0.00,60.00,Monday
12,3143847.579017212
24,50598.550021997624
103,682956.4748524042
140,842179.9334225959
155,0.0
170,202941.21627602424
185,0.0
200,214406.6124122581
230,0.0
260,725053.9997548979
275,182960.30925846063
290,0.0
805,3292506.6349150699
2,1, 1, 1, 0,12, 0.00,60.00,Monday
12,3185404.411553115
24,48639.22729229295
103,656510.4177223966
140,874571.4693234648
155,0.0
170,241596.68604288577
185,0.0
200,214406.6124122581
230,0.0
260,755264.5830780187
275,190583.65547756313
290,0.0
805,1250448.20086761
2,1, 1, 1, 0,13, 0.00,60.00,Monday
12,4297584.293311454
24,47225.03669356352
103,637422.3089592449
140,798991.2188881035
155,0.0
170,275420.22208889006
185,0.0
200,225126.94303287086
230,0.0
260,725053.9997548979
275,182960.30925846063
290,0.0
805,1366611.4938361569
2,1, 1, 1, 0,14, 0.00,60.00,Monday
12,3038595.3681143217
24,46808.89036836303
103,631805.352995919
140,723410.9684527429
155,0.0
170,222268.95115945536
185,0.0
200,225126.94303287086
230,0.0
260,845896.3330473809
275,213453.69413487073
290,0.0
805,1758034.9517185253
2,1, 1, 1, 0,15, 0.00,60.00,Monday
12,4351178.879152177
24,47538.264305590754
103,641650.1144130287
140,615439.1821165126
155,0.0
170,275420.22208889006
185,0.0
200,225126.94303287086
230,0.0
260,936528.0830167432
275,236323.73279217829
290,0.0
805,1215631.9398838636
2,1, 1, 1, 0,16, 0.00,60.00,Monday
12,4650026.626060933
24,51988.5350477318
103,701717.8676761182
140,658627.8966510041
155,253424.77499091716
170,212605.08371773945
185,0.0
200,219766.7777225645
230,0.0
260,966738.6663398639
275,243947.07901128083
290,0.0
805,1452930.7304070525
2,1, 1, 1, 0,17, 0.00,60.00,Monday
12,3840000.102535283
24,63845.92288129627
103,861763.5565792262
140,593844.824849266
155,0.0
170,444537.90231891
185,0.0
200,235847.27365348399
230,0.0
260,1178212.7496017093
275,297310.5025449985
290,0.0
805,3642567.95547638
2,1, 1, 1, 0,18, 0.00,60.00,Monday
12,6325292.198398186
24,84670.86016062966
103,1142849.1953402723
140,583047.6462156435
155,0.0
170,724790.058128658
185,0.0
200,257287.9348947098
230,0.0
260,1601160.9161253998
275,404037.3496124338
290,0.0
805,6591040.388967444
2,1, 1, 1, 0,19, 0.00,60.00,Monday
12,13386745.338188198
24,103863.12985038012
103,1401897.8211611738
140,550656.1103147745
155,0.0
170,565336.2453403532
185,0.0
200,268008.26551532259
230,0.0
260,1903266.749356607
275,480270.8118034591
290,0.0
805,8844518.205764058
2,1, 1, 1, 0,20, 0.00,60.00,Monday
12,5854465.132553828
24,105153.55552703563
103,1419315.406661243
140,550656.1103147745
155,0.0
170,289916.02325146328
185,0.0
200,257287.9348947098
230,0.0
260,2024109.08264909
275,510764.1966798692
290,0.0
805,9702762.098397382
2,1, 1, 1, 0,21, 0.00,60.00,Monday
12,5242407.901638516
24,87299.80415468643
103,1178333.499178719
140,561453.2889483969
155,0.0
170,169117.68023001997
185,0.0
200,251927.7695844031
230,0.0
260,2144951.415941573
275,541257.5815562792
290,0.0
805,9941556.007179073
2,1, 1, 1, 0,22, 0.00,60.00,Monday
12,4902645.070329138
24,65866.14221702153
103,889031.5687130868
140,583047.6462156435
155,0.0
170,120798.34302144323
185,0.0
200,246567.6042740967
230,0.0
260,2084530.2492953318
275,526010.8891180742
290,0.0
805,10850372.22437928
2,1, 1, 1, 0,23, 0.00,60.00,Monday
12,5398666.977045828
24,56931.15998532923
103,768431.1964658087
140,475075.85987941306
155,0.0
170,77310.93953372377
185,0.0
200,235847.27365348399
230,0.0
260,1782424.4160641244
275,449777.426927049
290,0.0
805,12209428.977833478
2,1, 1, 1, 0,24, 0.00,60.00,Monday
12,3195451.7403628926
24,26450.161482620908
103,357012.38548524
140,259132.28720695227
155,0.0
170,53151.2709294349
185,0.0
200,219766.7777225645
230,0.0
260,1510529.1661560375
275,381167.31095512627
290,0.0
805,15100590.256470962
2,2, 1, 2, 0, 1, 0.00,60.00,Tuesday
12,2549466.2518573144
24,13133.634023603743
103,177271.88606911564
140,107971.78633623042
155,0.0
170,33823.53604600406
185,0.0
200,214406.6124122581
230,0.0
260,1208423.3329248299
275,304933.84876410107
290,0.0
805,16239494.467772639
2,2, 1, 2, 0, 2, 0.00,60.00,Tuesday
12,2312184.5234260486
24,7880.180414162213
103,106363.13164146894
140,64783.07180173816
155,0.0
170,33823.53604600406
185,0.0
200,209046.44710195173
230,0.0
260,1117791.5829554678
275,282063.8101067935
290,0.0
805,16288351.641057855
2,2, 1, 2, 0, 3, 0.00,60.00,Tuesday
12,2234895.0919558948
24,5253.453609441477
103,70908.75442764597
140,43188.71453449208
155,0.0
170,19327.734883430905
185,0.0
200,203686.28179164505
230,0.0
260,1117791.5829554678
275,282063.8101067935
290,0.0
805,16405988.785830234
2,2, 1, 2, 0, 4, 0.00,60.00,Tuesday
12,2192103.7682832556
24,5253.453609441477
103,70908.75442764597
140,21594.35726724608
155,0.0
170,19327.734883430905
185,0.0
200,198326.11648133864
230,0.0
260,1087580.999632347
275,274440.4638876909
290,0.0
805,17560174.186121707
2,2, 1, 2, 0, 5, 0.00,60.00,Tuesday
12,2091577.1181838157
24,5840.658207808643
103,78834.5780400541
140,43188.71453449208
155,0.0
170,33823.53604600406
185,0.0
200,192965.95117103228
230,0.0
260,996949.2496629846
275,251570.42523038339
290,0.0
805,16181903.067656529
2,2, 1, 2, 0, 6, 0.00,60.00,Tuesday
12,2395796.532411419
24,16026.080925005024
103,216312.83365792936
140,64783.07180173816
155,0.0
170,53151.2709294349
185,0.0
200,192965.95117103228
230,0.0
260,1087580.999632347
275,274440.4638876909
290,0.0
805,16293761.12473867
2,2, 1, 2, 0, 7, 0.00,60.00,Tuesday
12,3140458.9613634895
24,37624.814061416066
103,507842.8209344053
140,172754.85813796847
155,0.0
170,120798.34302144323
185,0.0
200,203686.28179164505
230,0.0
260,1299055.0828941924
275,327803.8874214086
290,0.0
805,15263097.089644608
2,2, 1, 2, 0, 8, 0.00,60.00,Tuesday
12,4843930.605628992
24,47613.232268258325
103,642661.9982612429
140,345509.7162759369
155,0.0
170,202941.21627602424
185,0.0
200,214406.6124122581
230,0.0
260,1419897.4161866753
275,358297.2722978187
290,0.0
805,13502570.835271683
2,2, 1, 2, 0, 9, 0.00,60.00,Tuesday
12,3308396.2046728546
24,50599.49322596624
103,682969.2057954291
140,518264.57441390547
155,0.0
170,222268.95115945536
185,0.0
200,219766.7777225645
230,0.0
260,1027159.8329861055
275,259193.77144948589
290,0.0
805,12077251.902123036
2,2, 1, 2, 0,10, 0.00,60.00,Tuesday
12,4370278.22418973
24,52012.74062072695
103,702044.5836155546
140,734208.1470863654
155,0.0
170,231932.81860117054
185,0.0
200,219766.7777225645
230,0.0
260,694843.4164317773
275,175336.9630393581
290,0.0
805,7612672.100759682
2,2, 1, 2, 0,11, 0.00,60.00,Tuesday
12,4255190.80592328
24,50598.550021997624
103,682956.4748524042
140,842179.9334225959
155,0.0
170,202941.21627602424
185,0.0
200,214406.6124122581
230,0.0
260,725053.9997548979
275,182960.30925846063
290,0.0
805,3255149.8538552748
2,2, 1, 2, 0,12, 0.00,60.00,Tuesday
12,3095636.5027745545
24,48639.22729229295
103,656510.4177223966
140,874571.4693234648
155,0.0
170,241596.68604288577
185,0.0
200,214406.6124122581
230,0.0
260,755264.5830780187
275,190583.65547756313
290,0.0
805,927024.676908858
2,2, 1, 2, 0,13, 0.00,60.00,Tuesday
12,4227244.81613148
24,47225.03669356352
103,637422.3089592449
140,798991.2188881035
155,0.0
170,275420.22208889006
185,0.0
200,225126.94303287086
230,0.0
260,725053.9997548979
275,182960.30925846063
290,0.0
805,0.0
2,2, 1, 2, 0,14, 0.00,60.00,Tuesday
12,3008180.23831708
24,46808.89036836303
103,631805.352995919
140,723410.9684527429
155,0.0
170,222268.95115945536
185,0.0
200,225126.94303287086
230,0.0
260,845896.3330473809
275,213453.69413487073
290,0.0
805,0.0
2,2, 1, 2, 0,15, 0.00,60.00,Tuesday
12,2978026.541765814
24,47538.264305590754
103,641650.1144130287
140,615439.1821165126
155,0.0
170,275420.22208889006
185,0.0
200,225126.94303287086
230,0.0
260,936528.0830167432
275,236323.73279217829
290,0.0
805,0.0
2,2, 1, 2, 0,16, 0.00,60.00,Tuesday
12,4405830.631207049
24,51988.5350477318
103,701717.8676761182
140,658627.8966510041
155,0.0
170,212605.08371773945
185,0.0
200,219766.7777225645
230,0.0
260,966738.6663398639
275,243947.07901128083
290,0.0
805,0.0
2,2, 1, 2, 0,17, 0.00,60.00,Tuesday
12,3791778.3116035608
24,63845.92288129627
103,861763.5565792262
140,593844.824849266
155,0.0
170,444537.90231891
185,0.0
200,235847.27365348399
230,0.0
260,1178212.7496017093
275,297310.5025449985
290,0.0
805,948683.5101573934
2,2, 1, 2, 0,18, 0.00,60.00,Tuesday
12,5026899.102700158
24,84670.86016062966
103,1142849.1953402723
140,583047.6462156435
155,0.0
170,724790.058128658
185,0.0
200,257287.9348947098
230,0.0
260,1601160.9161253998
275,404037.3496124338
290,0.0
805,2573914.5497283826
2,2, 1, 2, 0,19, 0.00,60.00,Tuesday
12,5539982.7040699799
24,103863.12985038012
103,1401897.8211611738
140,550656.1103147745
155,0.0
170,565336.2453403532
185,0.0
200,268008.26551532259
230,0.0
260,1903266.749356607
275,480270.8118034591
290,0.0
805,4548271.471875224
2,2, 1, 2, 0,20, 0.00,60.00,Tuesday
12,6582131.60590506
24,105153.55552703563
103,1419315.406661243
140,550656.1103147745
155,0.0
170,289916.02325146328
185,0.0
200,257287.9348947098
230,0.0
260,2024109.08264909
275,510764.1966798692
290,0.0
805,5690844.646716659
2,2, 1, 2, 0,21, 0.00,60.00,Tuesday
12,5175113.584028916
24,87299.80415468643
103,1178333.499178719
140,561453.2889483969
155,0.0
170,169117.68023001997
185,0.0
200,251927.7695844031
230,0.0
260,2144951.415941573
275,541257.5815562792
290,0.0
805,7349312.283819801
2,2, 1, 2, 0,22, 0.00,60.00,Tuesday
12,4837923.40659026
24,65866.14221702153
103,889031.5687130868
140,583047.6462156435
155,0.0
170,120798.34302144323
185,0.0
200,246567.6042740967
230,0.0
260,2084530.2492953318
275,526010.8891180742
290,0.0
805,7454438.089180257
2,2, 1, 2, 0,23, 0.00,60.00,Tuesday
12,4164854.470277684
24,56931.15998532923
103,768431.1964658087
140,475075.85987941306
155,0.0
170,77310.93953372377
185,0.0
200,235847.27365348399
230,0.0
260,1782424.4160641244
275,449777.426927049
290,0.0
805,7296253.857427022
2,2, 1, 2, 0,24, 0.00,60.00,Tuesday
12,7592945.255043615
24,26450.161482620908
103,357012.38548524
140,259132.28720695227
155,0.0
170,53151.2709294349
185,0.0
200,219766.7777225645
230,0.0
260,1510529.1661560375
275,381167.31095512627
290,0.0
805,8827950.544295628
2,3, 1, 3, 0, 1, 0.00,60.00,Wednesday
12,2121916.6395671826
24,13133.634023603743
103,177271.88606911564
140,107971.78633623042
155,0.0
170,33823.53604600406
185,0.0
200,214406.6124122581
230,0.0
260,1208423.3329248299
275,304933.84876410107
290,0.0
805,10051573.616816633
2,3, 1, 3, 0, 2, 0.00,60.00,Wednesday
12,2215788.0734519606
24,7880.180414162213
103,106363.13164146894
140,64783.07180173816
155,0.0
170,33823.53604600406
185,0.0
200,209046.44710195173
230,0.0
260,1117791.5829554678
275,282063.8101067935
290,0.0
805,11230447.130139595
2,3, 1, 3, 0, 3, 0.00,60.00,Wednesday
12,2152436.299144309
24,5253.453609441477
103,70908.75442764597
140,43188.71453449208
155,0.0
170,19327.734883430905
185,0.0
200,203686.28179164505
230,0.0
260,1117791.5829554678
275,282063.8101067935
290,0.0
805,12079390.656555744
2,3, 1, 3, 0, 4, 0.00,60.00,Wednesday
12,3254492.552929507
24,5253.453609441477
103,70908.75442764597
140,21594.35726724608
155,0.0
170,19327.734883430905
185,0.0
200,198326.11648133864
230,0.0
260,1087580.999632347
275,274440.4638876909
290,0.0
805,13131042.398792094
2,3, 1, 3, 0, 5, 0.00,60.00,Wednesday
12,1967843.3581625387
24,5840.658207808643
103,78834.5780400541
140,43188.71453449208
155,0.0
170,33823.53604600406
185,0.0
200,192965.95117103228
230,0.0
260,996949.2496629846
275,251570.42523038339
290,0.0
805,13888027.02443485
2,3, 1, 3, 0, 6, 0.00,60.00,Wednesday
12,2357323.6960299808
24,16026.080925005024
103,216312.83365792936
140,64783.07180173816
155,0.0
170,53151.2709294349
185,0.0
200,192965.95117103228
230,0.0
260,1087580.999632347
275,274440.4638876909
290,0.0
805,14275098.27217716
2,3, 1, 3, 0, 7, 0.00,60.00,Wednesday
12,3106624.2943825016
24,37624.814061416066
103,507842.8209344053
140,172754.85813796847
155,0.0
170,120798.34302144323
185,0.0
200,203686.28179164505
230,0.0
260,1299055.0828941924
275,327803.8874214086
290,0.0
805,13487798.157012163
2,3, 1, 3, 0, 8, 0.00,60.00,Wednesday
12,3665881.0257993706
24,47613.232268258325
103,642661.9982612429
140,345509.7162759369
155,0.0
170,202941.21627602424
185,0.0
200,214406.6124122581
230,0.0
260,1419897.4161866753
275,358297.2722978187
290,0.0
805,13356379.918053246
2,3, 1, 3, 0, 9, 0.00,60.00,Wednesday
12,3347586.903604396
24,50599.49322596624
103,682969.2057954291
140,518264.57441390547
155,0.0
170,222268.95115945536
185,0.0
200,219766.7777225645
230,0.0
260,1027159.8329861055
275,259193.77144948589
290,0.0
805,9830971.187060224
2,3, 1, 3, 0,10, 0.00,60.00,Wednesday
12,14675626.01725918
24,52012.74062072695
103,702044.5836155546
140,734208.1470863654
155,0.0
170,231932.81860117054
185,0.0
200,219766.7777225645
230,0.0
260,694843.4164317773
275,175336.9630393581
290,0.0
805,7781246.336048986
2,3, 1, 3, 0,11, 0.00,60.00,Wednesday
12,11738754.078795206
24,50598.550021997624
103,682956.4748524042
140,842179.9334225959
155,0.0
170,202941.21627602424
185,0.0
200,214406.6124122581
230,0.0
260,725053.9997548979
275,182960.30925846063
290,0.0
805,4446864.997159985
2,3, 1, 3, 0,12, 0.00,60.00,Wednesday
12,2977651.364703
24,48639.22729229295
103,656510.4177223966
140,874571.4693234648
155,0.0
170,241596.68604288577
185,0.0
200,214406.6124122581
230,0.0
260,755264.5830780187
275,190583.65547756313
290,0.0
805,2626989.8792104867
2,3, 1, 3, 0,13, 0.00,60.00,Wednesday
12,3083901.6047172874
24,47225.03669356352
103,637422.3089592449
140,798991.2188881035
155,0.0
170,275420.22208889006
185,0.0
200,225126.94303287086
230,0.0
260,725053.9997548979
275,182960.30925846063
290,0.0
805,2152815.468309527
2,3, 1, 3, 0,14, 0.00,60.00,Wednesday
12,3147644.724196147
24,46808.89036836303
103,631805.352995919
140,723410.9684527429
155,0.0
170,222268.95115945536
185,0.0
200,225126.94303287086
230,0.0
260,845896.3330473809
275,213453.69413487073
290,0.0
805,3089086.8034651617
2,3, 1, 3, 0,15, 0.00,60.00,Wednesday
12,3201231.3311749657
24,47538.264305590754
103,641650.1144130287
140,615439.1821165126
155,0.0
170,275420.22208889006
185,0.0
200,225126.94303287086
230,0.0
260,936528.0830167432
275,236323.73279217829
290,0.0
805,2266947.5826605695
2,3, 1, 3, 0,16, 0.00,60.00,Wednesday
12,3326606.240199746
24,51988.5350477318
103,701717.8676761182
140,658627.8966510041
155,0.0
170,212605.08371773945
185,0.0
200,219766.7777225645
230,0.0
260,966738.6663398639
275,243947.07901128083
290,0.0
805,4785999.813189927
2,3, 1, 3, 0,17, 0.00,60.00,Wednesday
12,3996898.413860368
24,63845.92288129627
103,861763.5565792262
140,593844.824849266
155,0.0
170,444537.90231891
185,0.0
200,235847.27365348399
230,0.0
260,1178212.7496017093
275,297310.5025449985
290,0.0
805,7426351.922302062
2,3, 1, 3, 0,18, 0.00,60.00,Wednesday
12,6298715.933055543
24,84670.86016062966
103,1142849.1953402723
140,583047.6462156435
155,0.0
170,724790.058128658
185,0.0
200,257287.9348947098
230,0.0
260,1601160.9161253998
275,404037.3496124338
290,0.0
805,9204194.922294692
2,3, 1, 3, 0,19, 0.00,60.00,Wednesday
12,6744379.659859695
24,103863.12985038012
103,1401897.8211611738
140,550656.1103147745
155,0.0
170,565336.2453403532
185,0.0
200,268008.26551532259
230,0.0
260,1903266.749356607
275,480270.8118034591
290,0.0
805,9381523.141221678
2,3, 1, 3, 0,20, 0.00,60.00,Wednesday
12,14662835.96181547
24,105153.55552703563
103,1419315.406661243
140,550656.1103147745
155,0.0
170,289916.02325146328
185,3579380.6366059549
200,257287.9348947098
230,0.0
260,2024109.08264909
275,510764.1966798692
290,0.0
805,10277586.138013885
2,3, 1, 3, 0,21, 0.00,60.00,Wednesday
12,5527674.520963619
24,87299.80415468643
103,1178333.499178719
140,561453.2889483969
155,0.0
170,169117.68023001997
185,0.0
200,251927.7695844031
230,0.0
260,2144951.415941573
275,541257.5815562792
290,0.0
805,12575800.94215689
2,3, 1, 3, 0,22, 0.00,60.00,Wednesday
12,4931827.101171345
24,65866.14221702153
103,889031.5687130868
140,583047.6462156435
155,0.0
170,120798.34302144323
185,0.0
200,246567.6042740967
230,0.0
260,2084530.2492953318
275,526010.8891180742
290,0.0
805,14456320.865157037
2,3, 1, 3, 0,23, 0.00,60.00,Wednesday
12,4343701.484688818
24,56931.15998532923
103,768431.1964658087
140,475075.85987941306
155,0.0
170,77310.93953372377
185,0.0
200,235847.27365348399
230,0.0
260,1782424.4160641244
275,449777.426927049
290,0.0
805,16680324.756277547
2,3, 1, 3, 0,24, 0.00,60.00,Wednesday
12,4502494.93468659
24,26450.161482620908
103,357012.38548524
140,259132.28720695227
155,0.0
170,53151.2709294349
185,0.0
200,219766.7777225645
230,0.0
260,1510529.1661560375
275,381167.31095512627
290,0.0
805,18635891.12758942
2,4, 1, 4, 0, 1, 0.00,60.00,Thursday
12,2548270.1309568958
24,13133.634023603743
103,177271.88606911564
140,107971.78633623042
155,0.0
170,33823.53604600406
185,0.0
200,214406.6124122581
230,0.0
260,1208423.3329248299
275,304933.84876410107
290,0.0
805,20423875.25216238
2,4, 1, 4, 0, 2, 0.00,60.00,Thursday
12,2446929.652257385
24,7880.180414162213
103,106363.13164146894
140,64783.07180173816
155,0.0
170,33823.53604600406
185,0.0
200,209046.44710195173
230,0.0
260,1117791.5829554678
275,282063.8101067935
290,0.0
805,23358404.481421576
2,4, 1, 4, 0, 3, 0.00,60.00,Thursday
12,2390482.997039008
24,5253.453609441477
103,70908.75442764597
140,43188.71453449208
155,0.0
170,19327.734883430905
185,0.0
200,203686.28179164505
230,0.0
260,1117791.5829554678
275,282063.8101067935
290,0.0
805,24569658.37299594
2,4, 1, 4, 0, 4, 0.00,60.00,Thursday
12,2326201.744988958
24,5253.453609441477
103,70908.75442764597
140,21594.35726724608
155,0.0
170,19327.734883430905
185,0.0
200,198326.11648133864
230,0.0
260,1087580.999632347
275,274440.4638876909
290,0.0
805,24596271.070053698
2,4, 1, 4, 0, 5, 0.00,60.00,Thursday
12,3417132.7285749476
24,5840.658207808643
103,78834.5780400541
140,43188.71453449208
155,0.0
170,33823.53604600406
185,0.0
200,192965.95117103228
230,0.0
260,996949.2496629846
275,251570.42523038339
290,0.0
805,24732434.971624666
2,4, 1, 4, 0, 6, 0.00,60.00,Thursday
12,2468921.6263901849
24,16026.080925005024
103,216312.83365792936
140,64783.07180173816
155,0.0
170,53151.2709294349
185,0.0
200,192965.95117103228
230,0.0
260,1087580.999632347
275,274440.4638876909
290,0.0
805,24386851.53540263
2,4, 1, 4, 0, 7, 0.00,60.00,Thursday
12,3291370.2202337787
24,37624.814061416066
103,507842.8209344053
140,172754.85813796847
155,0.0
170,120798.34302144323
185,0.0
200,203686.28179164505
230,0.0
260,1299055.0828941924
275,327803.8874214086
290,0.0
805,23181383.88540906
2,4, 1, 4, 0, 8, 0.00,60.00,Thursday
12,4977208.470573813
24,47613.232268258325
103,642661.9982612429
140,345509.7162759369
155,0.0
170,202941.21627602424
185,0.0
200,214406.6124122581
230,0.0
260,1419897.4161866753
275,358297.2722978187
290,0.0
805,20413735.369069283
2,4, 1, 4, 0, 9, 0.00,60.00,Thursday
12,12881039.933668483
24,50599.49322596624
103,682969.2057954291
140,518264.57441390547
155,0.0
170,222268.95115945536
185,0.0
200,219766.7777225645
230,0.0
260,1027159.8329861055
275,259193.77144948589
290,0.0
805,18070099.85876334
2,4, 1, 4, 0,10, 0.00,60.00,Thursday
12,5072794.17466896
24,52012.74062072695
103,702044.5836155546
140,734208.1470863654
155,0.0
170,231932.81860117054
185,0.0
200,219766.7777225645
230,0.0
260,694843.4164317773
275,175336.9630393581
290,0.0
805,13829617.946446186
2,4, 1, 4, 0,11, 0.00,60.00,Thursday
12,3122312.3099537349
24,50598.550021997624
103,682956.4748524042
140,842179.9334225959
155,0.0
170,202941.21627602424
185,0.0
200,214406.6124122581
230,0.0
260,725053.9997548979
275,182960.30925846063
290,0.0
805,11238207.058963512
2,4, 1, 4, 0,12, 0.00,60.00,Thursday
12,8525313.470507212
24,48639.22729229295
103,656510.4177223966
140,874571.4693234648
155,0.0
170,241596.68604288577
185,0.0
200,214406.6124122581
230,0.0
260,755264.5830780187
275,190583.65547756313
290,0.0
805,10244094.499426848
2,4, 1, 4, 0,13, 0.00,60.00,Thursday
12,3480329.723280855
24,47225.03669356352
103,637422.3089592449
140,798991.2188881035
155,0.0
170,275420.22208889006
185,0.0
200,225126.94303287086
230,0.0
260,725053.9997548979
275,182960.30925846063
290,0.0
805,8257321.045997568
2,4, 1, 4, 0,14, 0.00,60.00,Thursday
12,3183014.548277579
24,46808.89036836303
103,631805.352995919
140,723410.9684527429
155,0.0
170,222268.95115945536
185,0.0
200,225126.94303287086
230,0.0
260,845896.3330473809
275,213453.69413487073
290,0.0
805,7183177.099940002
2,4, 1, 4, 0,15, 0.00,60.00,Thursday
12,3092596.5745528817
24,47538.264305590754
103,641650.1144130287
140,615439.1821165126
155,0.0
170,275420.22208889006
185,0.0
200,225126.94303287086
230,0.0
260,936528.0830167432
275,236323.73279217829
290,0.0
805,6011469.154782455
2,4, 1, 4, 0,16, 0.00,60.00,Thursday
12,4349065.803591884
24,51988.5350477318
103,701717.8676761182
140,658627.8966510041
155,0.0
170,212605.08371773945
185,0.0
200,219766.7777225645
230,0.0
260,966738.6663398639
275,243947.07901128083
290,0.0
805,6964046.150316226
2,4, 1, 4, 0,17, 0.00,60.00,Thursday
12,3898745.1375004576
24,63845.92288129627
103,861763.5565792262
140,593844.824849266
155,0.0
170,444537.90231891
185,0.0
200,235847.27365348399
230,0.0
260,1178212.7496017093
275,297310.5025449985
290,0.0
805,6526472.497429906
2,4, 1, 4, 0,18, 0.00,60.00,Thursday
12,5357698.29331111
24,84670.86016062966
103,1142849.1953402723
140,583047.6462156435
155,0.0
170,724790.058128658
185,0.0
200,257287.9348947098
230,0.0
260,1601160.9161253998
275,404037.3496124338
290,0.0
805,6396290.27389006
2,4, 1, 4, 0,19, 0.00,60.00,Thursday
12,6441700.856122223
24,103863.12985038012
103,1401897.8211611738
140,550656.1103147745
155,0.0
170,565336.2453403532
185,0.0
200,268008.26551532259
230,0.0
260,1903266.749356607
275,480270.8118034591
290,0.0
805,6528592.187643868
2,4, 1, 4, 0,20, 0.00,60.00,Thursday
12,7492409.554743382
24,105153.55552703563
103,1419315.406661243
140,550656.1103147745
155,0.0
170,289916.02325146328
185,0.0
200,257287.9348947098
230,0.0
260,2024109.08264909
275,510764.1966798692
290,0.0
805,6091881.234948057
2,4, 1, 4, 0,21, 0.00,60.00,Thursday
12,5494813.667044491
24,87299.80415468643
103,1178333.499178719
140,561453.2889483969
155,0.0
170,169117.68023001997
185,0.0
200,251927.7695844031
230,0.0
260,2144951.415941573
275,541257.5815562792
290,0.0
805,6617561.892085598
2,4, 1, 4, 0,22, 0.00,60.00,Thursday
12,4797623.898869569
24,65866.14221702153
103,889031.5687130868
140,583047.6462156435
155,0.0
170,120798.34302144323
185,0.0
200,246567.6042740967
230,0.0
260,2084530.2492953318
275,526010.8891180742
290,0.0
805,6807685.9034559749
2,4, 1, 4, 0,23, 0.00,60.00,Thursday
12,5368315.100365283
24,56931.15998532923
103,768431.1964658087
140,475075.85987941306
155,0.0
170,77310.93953372377
185,0.0
200,235847.27365348399
230,0.0
260,1782424.4160641244
275,449777.426927049
290,0.0
805,7463508.482656357
2,4, 1, 4, 0,24, 0.00,60.00,Thursday
12,2853798.149916832
24,26450.161482620908
103,357012.38548524
140,259132.28720695227
155,0.0
170,53151.2709294349
185,0.0
200,219766.7777225645
230,0.0
260,1510529.1661560375
275,381167.31095512627
290,0.0
805,6838674.713585876
2,5, 1, 5, 0, 1, 0.00,60.00,Friday
12,2401520.502687659
24,13133.634023603743
103,177271.88606911564
140,107971.78633623042
155,0.0
170,33823.53604600406
185,0.0
200,214406.6124122581
230,0.0
260,1208423.3329248299
275,304933.84876410107
290,0.0
805,8476807.436273799
2,5, 1, 5, 0, 2, 0.00,60.00,Friday
12,1957490.903811497
24,7880.180414162213
103,106363.13164146894
140,64783.07180173816
155,0.0
170,33823.53604600406
185,0.0
200,209046.44710195173
230,0.0
260,1117791.5829554678
275,282063.8101067935
290,0.0
805,7122208.625266375
2,5, 1, 5, 0, 3, 0.00,60.00,Friday
12,1873703.3930578684
24,5253.453609441477
103,70908.75442764597
140,43188.71453449208
155,0.0
170,19327.734883430905
185,0.0
200,203686.28179164505
230,0.0
260,1117791.5829554678
275,282063.8101067935
290,0.0
805,6898892.710781642
2,5, 1, 5, 0, 4, 0.00,60.00,Friday
12,1993422.1836542784
24,5253.453609441477
103,70908.75442764597
140,21594.35726724608
155,0.0
170,19327.734883430905
185,0.0
200,198326.11648133864
230,0.0
260,1087580.999632347
275,274440.4638876909
290,0.0
805,7135386.930974686
2,5, 1, 5, 0, 5, 0.00,60.00,Friday
12,1915547.1488352733
24,5840.658207808643