Program Version,EnergyPlus, Version 9.2.0-921312fa1d, YMD=2019.12.18 17:26
1,5,Environment Title[],Latitude[deg],Longitude[deg],Time Zone[],Elevation[m]
2,8,Day of Simulation[],Month[],Day of Month[],DST Indicator[1=yes 0=no],Hour[],StartMinute[],EndMinute[],DayType
3,5,Cumulative Day of Simulation[],Month[],Day of Month[],DST Indicator[1=yes 0=no],DayType  ! When Daily Meters Requested
4,2,Cumulative Days of Simulation[],Month[]  ! When Monthly Meters Requested
5,1,Cumulative Days of Simulation[] ! When Run Period Meters Requested
6,1,Calendar Year of Simulation[] ! When Annual Meters Requested
159,11,clothes washer:InteriorEquipment:Electricity [J] !RunPeriod [Value,Min,Month,Day,Hour,Minute,Max,Month,Day,Hour,Minute]
704,11,Cooling:DistrictCooling [J] !RunPeriod [Value,Min,Month,Day,Hour,Minute,Max,Month,Day,Hour,Minute]
776,1,Gas:Facility [J] !Hourly
16,11,Electricity:Facility [J] !RunPeriod [Value,Min,Month,Day,Hour,Minute,Max,Month,Day,Hour,Minute]
780,11,Gas:Facility [J] !RunPeriod [Value,Min,Month,Day,Hour,Minute,Max,Month,Day,Hour,Minute]
514,11,Heating:EnergyTransfer [J] !RunPeriod [Value,Min,Month,Day,Hour,Minute,Max,Month,Day,Hour,Minute]
539,11,Cooling:EnergyTransfer [J] !RunPeriod [Value,Min,Month,Day,Hour,Minute,Max,Month,Day,Hour,Minute]
107,11,interior lighting:InteriorLights:Electricity [J] !RunPeriod [Value,Min,Month,Day,Hour,Minute,Max,Month,Day,Hour,Minute]
667,11,Heating:DistrictHeating [J] !RunPeriod [Value,Min,Month,Day,Hour,Minute,Max,Month,Day,Hour,Minute]
174,11,cooking range:InteriorEquipment:Electricity [J] !RunPeriod [Value,Min,Month,Day,Hour,Minute,Max,Month,Day,Hour,Minute]
279,11,misc tv:InteriorEquipment:Electricity [J] !RunPeriod [Value,Min,Month,Day,Hour,Minute,Max,Month,Day,Hour,Minute]
28,11,ExteriorLights:Electricity [J] !RunPeriod [Value,Min,Month,Day,Hour,Minute,Max,Month,Day,Hour,Minute]
120,11,InteriorEquipment:Electricity [J] !RunPeriod [Value,Min,Month,Day,Hour,Minute,Max,Month,Day,Hour,Minute]
204,11,fridge:InteriorEquipment:Electricity [J] !RunPeriod [Value,Min,Month,Day,Hour,Minute,Max,Month,Day,Hour,Minute]
189,11,dishwasher:InteriorEquipment:Electricity [J] !RunPeriod [Value,Min,Month,Day,Hour,Minute,Max,Month,Day,Hour,Minute]
144,11,clothes dryer:InteriorEquipment:Electricity [J] !RunPeriod [Value,Min,Month,Day,Hour,Minute,Max,Month,Day,Hour,Minute]
264,11,misc plug loads:InteriorEquipment:Electricity [J] !RunPeriod [Value,Min,Month,Day,Hour,Minute,Max,Month,Day,Hour,Minute]
234,11,mech vent house fan:InteriorEquipment:Electricity [J] !RunPeriod [Value,Min,Month,Day,Hour,Minute,Max,Month,Day,Hour,Minute]
12,1,Electricity:Facility [J] !Hourly
End of Data Dictionary
1,RUN PERIOD 1,  39.83,-104.65,  -7.00,1650.00
2,1, 1, 1, 0, 1, 0.00,60.00,Monday
12,2287431.0653532959
776,2490555.039046331
2,1, 1, 1, 0, 2, 0.00,60.00,Monday
12,2101018.2894083836
776,5208497.062609472
2,1, 1, 1, 0, 3, 0.00,60.00,Monday
12,2052017.5712684752
776,6810437.942629203
2,1, 1, 1, 0, 4, 0.00,60.00,Monday
12,2015297.9937883984
776,8283206.781053181
2,1, 1, 1, 0, 5, 0.00,60.00,Monday
12,1957924.095878181
776,9169152.861614269
2,1, 1, 1, 0, 6, 0.00,60.00,Monday
12,2262272.475220764
776,9287777.695242476
2,1, 1, 1, 0, 7, 0.00,60.00,Monday
12,3025292.948887864
776,9220356.987062889
2,1, 1, 1, 0, 8, 0.00,60.00,Monday
12,3579908.5224984774
776,8845418.027056134
2,1, 1, 1, 0, 9, 0.00,60.00,Monday
12,10681783.287755486
776,8174529.6184853049
2,1, 1, 1, 0,10, 0.00,60.00,Monday
12,2675525.692465424
776,5664565.876234741
2,1, 1, 1, 0,11, 0.00,60.00,Monday
12,3145117.9275644759
776,3359161.5962686298
2,1, 1, 1, 0,12, 0.00,60.00,Monday
12,3206051.5044376526
776,2333797.4763453009
2,1, 1, 1, 0,13, 0.00,60.00,Monday
12,4318251.93234719
776,2451107.7936361029
2,1, 1, 1, 0,14, 0.00,60.00,Monday
12,3059383.4975451866
776,2848779.5772472007
2,1, 1, 1, 0,15, 0.00,60.00,Monday
12,4374229.205798492
776,2425088.0836050158
2,1, 1, 1, 0,16, 0.00,60.00,Monday
12,4669401.929060766
776,2469601.212935685
2,1, 1, 1, 0,17, 0.00,60.00,Monday
12,3834626.9612545354
776,3360636.5315337276
2,1, 1, 1, 0,18, 0.00,60.00,Monday
12,6293117.798189256
776,4902958.797990011
2,1, 1, 1, 0,19, 0.00,60.00,Monday
12,13337152.48148422
776,6398958.075607539
2,1, 1, 1, 0,20, 0.00,60.00,Monday
12,5799134.41929213
776,6692141.482647058
2,1, 1, 1, 0,21, 0.00,60.00,Monday
12,5180570.891092764
776,6703712.426864795
2,1, 1, 1, 0,22, 0.00,60.00,Monday
12,4834887.764511566
776,7295158.491565547
2,1, 1, 1, 0,23, 0.00,60.00,Monday
12,5324029.709590614
776,8293225.429792791
2,1, 1, 1, 0,24, 0.00,60.00,Monday
12,3108466.6766621477
776,10536499.464284081
2,2, 1, 2, 0, 1, 0.00,60.00,Tuesday
12,2458889.306391568
776,11486938.318873555
2,2, 1, 2, 0, 2, 0.00,60.00,Tuesday
12,2222447.0988249506
776,11579845.00196389
2,2, 1, 2, 0, 3, 0.00,60.00,Tuesday
12,2145894.1138475334
776,11736123.362659323
2,2, 1, 2, 0, 4, 0.00,60.00,Tuesday
12,2097805.568226047
776,12612364.473533377
2,2, 1, 2, 0, 5, 0.00,60.00,Tuesday
12,2005694.510916996
776,11675658.005509176
2,2, 1, 2, 0, 6, 0.00,60.00,Tuesday
12,2309778.5067193435
776,11780410.682007848
2,2, 1, 2, 0, 7, 0.00,60.00,Tuesday
12,3059644.8486548184
776,11022795.031582099
2,2, 1, 2, 0, 8, 0.00,60.00,Tuesday
12,4775459.704834481
776,9909914.279590074
2,2, 1, 2, 0, 9, 0.00,60.00,Tuesday
12,3255635.5452570149
776,9308909.570560664
2,2, 1, 2, 0,10, 0.00,60.00,Tuesday
12,4356174.11215377
776,6872633.607651512
2,2, 1, 2, 0,11, 0.00,60.00,Tuesday
12,4272193.329919833
776,4147270.0966910787
2,2, 1, 2, 0,12, 0.00,60.00,Tuesday
12,3126713.1297728477
776,2557609.67679593
2,2, 1, 2, 0,13, 0.00,60.00,Tuesday
12,4262505.586865199
776,1850126.3876205944
2,2, 1, 2, 0,14, 0.00,60.00,Tuesday
12,3039800.2757824349
776,1659097.7143473004
2,2, 1, 2, 0,15, 0.00,60.00,Tuesday
12,2996683.9174733764
776,978949.1706234072
2,2, 1, 2, 0,16, 0.00,60.00,Tuesday
12,4434136.744087126
776,1483350.9207730077
2,2, 1, 2, 0,17, 0.00,60.00,Tuesday
12,3811237.2541860125
776,1969820.9315246749
2,2, 1, 2, 0,18, 0.00,60.00,Tuesday
12,5023128.091481266
776,2376050.264685865
2,2, 1, 2, 0,19, 0.00,60.00,Tuesday
12,5517936.782703957
776,3391525.915845651
2,2, 1, 2, 0,20, 0.00,60.00,Tuesday
12,6551519.239556218
776,4084583.7269843437
2,2, 1, 2, 0,21, 0.00,60.00,Tuesday
12,5132650.827701956
776,5121301.52316426
2,2, 1, 2, 0,22, 0.00,60.00,Tuesday
12,4793011.120591331
776,5097898.465462855
2,2, 1, 2, 0,23, 0.00,60.00,Tuesday
12,4121267.600247528
776,5009258.57283309
2,2, 1, 2, 0,24, 0.00,60.00,Tuesday
12,7543522.944465037
776,6234644.310397956
2,3, 1, 3, 0, 1, 0.00,60.00,Wednesday
12,2066527.4510125295
776,7145321.608605233
2,3, 1, 3, 0, 2, 0.00,60.00,Wednesday
12,2155258.0244277419
776,8054446.270273933
2,3, 1, 3, 0, 3, 0.00,60.00,Wednesday
12,2088208.8932831409
776,8709390.143911288
2,3, 1, 3, 0, 4, 0.00,60.00,Wednesday
12,3185648.280532022
776,9518784.494367626
2,3, 1, 3, 0, 5, 0.00,60.00,Wednesday
12,1896133.9088142287
776,10125445.810035019
2,3, 1, 3, 0, 6, 0.00,60.00,Wednesday
12,2284283.1851131676
776,10442675.71154105
2,3, 1, 3, 0, 7, 0.00,60.00,Wednesday
12,3036823.172280382
776,9825345.748833554
2,3, 1, 3, 0, 8, 0.00,60.00,Wednesday
12,3597775.500553855
776,9782895.174057547
2,3, 1, 3, 0, 9, 0.00,60.00,Wednesday
12,3307373.4752945697
776,7720979.786936728
2,3, 1, 3, 0,10, 0.00,60.00,Wednesday
12,14660126.762355717
776,6966796.707763709
2,3, 1, 3, 0,11, 0.00,60.00,Wednesday
12,11749856.696124062
776,4913794.416408945
2,3, 1, 3, 0,12, 0.00,60.00,Wednesday
12,3002521.203593483
776,4006452.4851219446
2,3, 1, 3, 0,13, 0.00,60.00,Wednesday
12,3120192.0460082145
776,4052330.396133352
2,3, 1, 3, 0,14, 0.00,60.00,Wednesday
12,3180794.0220024895
776,4828424.537930897
2,3, 1, 3, 0,15, 0.00,60.00,Wednesday
12,3235487.6167513059
776,4064368.76767777
2,3, 1, 3, 0,16, 0.00,60.00,Wednesday
12,3334985.932216175
776,5225680.756434145
2,3, 1, 3, 0,17, 0.00,60.00,Wednesday
12,3975280.343884951
776,6292055.652310766
2,3, 1, 3, 0,18, 0.00,60.00,Wednesday
12,6256391.932933442
776,6983461.549517877
2,3, 1, 3, 0,19, 0.00,60.00,Wednesday
12,6697817.174192399
776,6938398.461053016
2,3, 1, 3, 0,20, 0.00,60.00,Wednesday
12,14605183.142382797
776,7246078.113134518
2,3, 1, 3, 0,21, 0.00,60.00,Wednesday
12,5457424.448736438
776,8894780.472652514
2,3, 1, 3, 0,22, 0.00,60.00,Wednesday
12,4850481.2208341979
776,10187800.52941882
2,3, 1, 3, 0,23, 0.00,60.00,Wednesday
12,4250998.510712901
776,11816216.271220562
2,3, 1, 3, 0,24, 0.00,60.00,Wednesday
12,4401524.399958032
776,13337985.198507769
2,4, 1, 4, 0, 1, 0.00,60.00,Thursday
12,2440548.6230666555
776,14771746.975939231
2,4, 1, 4, 0, 2, 0.00,60.00,Thursday
12,2325442.268633549
776,16983983.163874795
2,4, 1, 4, 0, 3, 0.00,60.00,Thursday
12,2263693.626189052
776,17917042.732784466
2,4, 1, 4, 0, 4, 0.00,60.00,Thursday
12,2200738.2175241026
776,18013222.19542408
2,4, 1, 4, 0, 5, 0.00,60.00,Thursday
12,3293487.0957077259
776,18244770.689498579
2,4, 1, 4, 0, 6, 0.00,60.00,Thursday
12,2348335.009265407
776,18059693.276016796
2,4, 1, 4, 0, 7, 0.00,60.00,Thursday
12,3177870.1130229786
776,17226053.53449336
2,4, 1, 4, 0, 8, 0.00,60.00,Thursday
12,4883613.2225077119
776,15502809.425543545
2,4, 1, 4, 0, 9, 0.00,60.00,Thursday
12,12812008.883420013
776,14448008.583908175
2,4, 1, 4, 0,10, 0.00,60.00,Thursday
12,5032207.351690561
776,11700061.771335856
2,4, 1, 4, 0,11, 0.00,60.00,Thursday
12,3096074.3318874768
776,9861503.356652568
2,4, 1, 4, 0,12, 0.00,60.00,Thursday
12,8506433.328816373
776,9253440.388046816
2,4, 1, 4, 0,13, 0.00,60.00,Thursday
12,3470591.343251655
776,7746363.324986997
2,4, 1, 4, 0,14, 0.00,60.00,Thursday
12,3177530.9815255359
776,6895454.481324819
2,4, 1, 4, 0,15, 0.00,60.00,Thursday
12,3092117.744997699
776,5986345.053554966
2,4, 1, 4, 0,16, 0.00,60.00,Thursday
12,4340818.156830332
776,6531293.534462958
2,4, 1, 4, 0,17, 0.00,60.00,Thursday
12,3886767.214830807
776,5897993.038993985
2,4, 1, 4, 0,18, 0.00,60.00,Thursday
12,5338289.090989631
776,5377674.543740702
2,4, 1, 4, 0,19, 0.00,60.00,Thursday
12,6414564.58035544
776,5104984.758094295
2,4, 1, 4, 0,20, 0.00,60.00,Thursday
12,7465195.132220416
776,4663883.97945007
2,4, 1, 4, 0,21, 0.00,60.00,Thursday
12,5462299.22243752
776,4911578.837284955
2,4, 1, 4, 0,22, 0.00,60.00,Thursday
12,4762610.075913467
776,4970514.020684315
2,4, 1, 4, 0,23, 0.00,60.00,Thursday
12,5330206.961055366
776,5463980.789863699
2,4, 1, 4, 0,24, 0.00,60.00,Thursday
12,2821759.9984001137
776,5157638.65648575
2,5, 1, 5, 0, 1, 0.00,60.00,Friday
12,2361191.1136658478
776,6360731.59830644
2,5, 1, 5, 0, 2, 0.00,60.00,Friday
12,1926401.232206143
776,5490939.109657061
2,5, 1, 5, 0, 3, 0.00,60.00,Friday
12,1844886.6693908936
776,5386884.367484191
2,5, 1, 5, 0, 4, 0.00,60.00,Friday
12,1963011.0116544932
776,5539718.168469727
2,5, 1, 5, 0, 5, 0.00,60.00,Friday
12,1886037.7457595338
776,5397288.911891097
2,5, 1, 5, 0, 6, 0.00,60.00,Friday
12,7225572.8408048
776,5258861.53904606
2,5, 1, 5, 0, 7, 0.00,60.00,Friday
12,10563254.225464926
776,6694592.007802583
2,5, 1, 5, 0, 8, 0.00,60.00,Friday
12,3900541.2683126677
776,4304791.813700452
2,5, 1, 5, 0, 9, 0.00,60.00,Friday
12,3144228.846457319
776,3321696.4634394615
2,5, 1, 5, 0,10, 0.00,60.00,Friday
12,2836742.4165837115
776,1395538.2368954465
2,5, 1, 5, 0,11, 0.00,60.00,Friday
12,22996092.336690546
776,1824145.157613778
2,5, 1, 5, 0,12, 0.00,60.00,Friday
12,8742849.24106581
776,0.0
2,5, 1, 5, 0,13, 0.00,60.00,Friday
12,3644330.8888194246
776,0.0
2,5, 1, 5, 0,14, 0.00,60.00,Friday
12,3987477.10077793
776,0.0
2,5, 1, 5, 0,15, 0.00,60.00,Friday
12,2896687.955049735
776,0.0
2,5, 1, 5, 0,16, 0.00,60.00,Friday
12,3235391.906166303
776,0.0
2,5, 1, 5, 0,17, 0.00,60.00,Friday
12,3855362.73242889
776,0.0
2,5, 1, 5, 0,18, 0.00,60.00,Friday
12,6717196.228510376
776,0.0
2,5, 1, 5, 0,19, 0.00,60.00,Friday
12,6028111.489774423
776,673926.5346478946
2,5, 1, 5, 0,20, 0.00,60.00,Friday
12,6921779.285095879
776,1304636.7449031543
2,5, 1, 5, 0,21, 0.00,60.00,Friday
12,6407370.245187103
776,2466497.2817214915
2,5, 1, 5, 0,22, 0.00,60.00,Friday
12,7730806.728906432
776,3127705.355745209
2,5, 1, 5, 0,23, 0.00,60.00,Friday
12,3919489.446682671
776,3656975.7562442945
2,5, 1, 5, 0,24, 0.00,60.00,Friday
12,4206553.119679392
776,4682269.342067871
2,6, 1, 6, 0, 1, 0.00,60.00,Saturday
12,2266070.836363759
776,5507078.65458272
2,6, 1, 6, 0, 2, 0.00,60.00,Saturday
12,4382377.184659618
776,5936406.125618719
2,6, 1, 6, 0, 3, 0.00,60.00,Saturday
12,2148522.524979988
776,6375141.058056268
2,6, 1, 6, 0, 4, 0.00,60.00,Saturday
12,1976316.591373646
776,7200733.66410112
2,6, 1, 6, 0, 5, 0.00,60.00,Saturday
12,1930835.4153142828
776,7747814.631256244
2,6, 1, 6, 0, 6, 0.00,60.00,Saturday
12,18187501.44210889
776,8883617.55890296
2,6, 1, 6, 0, 7, 0.00,60.00,Saturday
12,2247216.5831449509
776,8623978.848663614
2,6, 1, 6, 0, 8, 0.00,60.00,Saturday
12,3553813.992409318
776,8739196.937538879
2,6, 1, 6, 0, 9, 0.00,60.00,Saturday
12,3306754.9336905817
776,7688525.019465088
2,6, 1, 6, 0,10, 0.00,60.00,Saturday
12,5633261.29180816
776,6653443.85261532
2,6, 1, 6, 0,11, 0.00,60.00,Saturday
12,3004760.5424356807
776,5206784.769302347
2,6, 1, 6, 0,12, 0.00,60.00,Saturday
12,5362491.84783341
776,3813875.5248295676
2,6, 1, 6, 0,13, 0.00,60.00,Saturday
12,10070676.193103604
776,3789578.3720162438
2,6, 1, 6, 0,14, 0.00,60.00,Saturday
12,5356622.549212763
776,3745088.1891399754
2,6, 1, 6, 0,15, 0.00,60.00,Saturday
12,3051056.037596598
776,3569318.755696851
2,6, 1, 6, 0,16, 0.00,60.00,Saturday
12,4480386.002824996
776,3668820.0075794698
2,6, 1, 6, 0,17, 0.00,60.00,Saturday
12,3876693.7176468938
776,5421140.598425041
2,6, 1, 6, 0,18, 0.00,60.00,Saturday
12,6324691.17648861
776,5300540.780530151
2,6, 1, 6, 0,19, 0.00,60.00,Saturday
12,10623856.192852878
776,5916473.287403107
2,6, 1, 6, 0,20, 0.00,60.00,Saturday
12,6944540.281445613
776,6822243.753989917
2,6, 1, 6, 0,21, 0.00,60.00,Saturday
12,7954401.802249074
776,7080475.521425225
2,6, 1, 6, 0,22, 0.00,60.00,Saturday
12,24964795.39751462
776,8699245.920366202
2,6, 1, 6, 0,23, 0.00,60.00,Saturday
12,3292206.9946368525
776,9569472.262075695
2,6, 1, 6, 0,24, 0.00,60.00,Saturday
12,4313819.89493738
776,11094641.085667909
2,7, 1, 7, 0, 1, 0.00,60.00,Sunday
12,2395343.278854715
776,12305522.880033002
2,7, 1, 7, 0, 2, 0.00,60.00,Sunday
12,2240153.3405726396
776,12508888.343613072
2,7, 1, 7, 0, 3, 0.00,60.00,Sunday
12,2193522.467813979
776,14235174.587463269
2,7, 1, 7, 0, 4, 0.00,60.00,Sunday
12,4814231.71490733
776,15504928.575500573
2,7, 1, 7, 0, 5, 0.00,60.00,Sunday
12,12959122.376364446
776,17385577.02122051
2,7, 1, 7, 0, 6, 0.00,60.00,Sunday
12,2460605.1823396238
776,17091165.8849617
2,7, 1, 7, 0, 7, 0.00,60.00,Sunday
12,7696693.646604676
776,17273078.4987945
2,7, 1, 7, 0, 8, 0.00,60.00,Sunday
12,4498762.361745135
776,13006257.274926477
2,7, 1, 7, 0, 9, 0.00,60.00,Sunday
12,3309445.04272613
776,12071908.07353265
2,7, 1, 7, 0,10, 0.00,60.00,Sunday
12,6182753.284314984
776,11259412.593305398
2,7, 1, 7, 0,11, 0.00,60.00,Sunday
12,4027572.2495524806
776,10124719.204936052
2,7, 1, 7, 0,12, 0.00,60.00,Sunday
12,3266625.6301529088
776,9031397.633006609
2,7, 1, 7, 0,13, 0.00,60.00,Sunday
12,4602223.829273325
776,8444374.572184222
2,7, 1, 7, 0,14, 0.00,60.00,Sunday
12,3174596.352588526
776,8251926.835490095
2,7, 1, 7, 0,15, 0.00,60.00,Sunday
12,3312050.144735541
776,8081590.934706356
2,7, 1, 7, 0,16, 0.00,60.00,Sunday
12,3388380.0984305639
776,8027263.119945162
2,7, 1, 7, 0,17, 0.00,60.00,Sunday
12,9152330.853017718
776,7944021.041695591
2,7, 1, 7, 0,18, 0.00,60.00,Sunday
12,8200235.161574205
776,7003639.832694523
2,7, 1, 7, 0,19, 0.00,60.00,Sunday
12,5331348.831463302
776,6224086.166542682
2,7, 1, 7, 0,20, 0.00,60.00,Sunday
12,5457396.646125922
776,6306575.347451881
2,7, 1, 7, 0,21, 0.00,60.00,Sunday
12,5249301.713718294
776,7081362.46337843
2,7, 1, 7, 0,22, 0.00,60.00,Sunday
12,6040219.768840177
776,7910727.499130351
2,7, 1, 7, 0,23, 0.00,60.00,Sunday
12,4100635.773609814
776,8296450.371935896
2,7, 1, 7, 0,24, 0.00,60.00,Sunday
12,4313303.012582499
776,8026155.03058506
2,8, 1, 8, 0, 1, 0.00,60.00,Monday
12,2319068.56244637
776,8445355.73859943
2,8, 1, 8, 0, 2, 0.00,60.00,Monday
12,2173141.993212123
776,8992814.91779112
2,8, 1, 8, 0, 3, 0.00,60.00,Monday
12,2111647.7872420598
776,9939224.72306455
2,8, 1, 8, 0, 4, 0.00,60.00,Monday
12,2096106.106403261
776,12523194.015265348
2,8, 1, 8, 0, 5, 0.00,60.00,Monday
12,2028528.010553579
776,12873727.652710576
2,8, 1, 8, 0, 6, 0.00,60.00,Monday
12,2310386.3408877647
776,11812303.632247966
2,8, 1, 8, 0, 7, 0.00,60.00,Monday
12,3081631.6309415458
776,12176437.570685052
2,8, 1, 8, 0, 8, 0.00,60.00,Monday
12,4762916.150138033
776,10635618.404131219
2,8, 1, 8, 0, 9, 0.00,60.00,Monday
12,9096782.29977677
776,8227668.860436222
2,8, 1, 8, 0,10, 0.00,60.00,Monday
12,2780651.3929839746
776,5667605.012479106
2,8, 1, 8, 0,11, 0.00,60.00,Monday
12,3169364.2280971135
776,4631360.654118523
2,8, 1, 8, 0,12, 0.00,60.00,Monday
12,4369110.2022511609
776,3510631.8947694029
2,8, 1, 8, 0,13, 0.00,60.00,Monday
12,4050672.828669115
776,2010104.2618892845
2,8, 1, 8, 0,14, 0.00,60.00,Monday
12,2836033.2253266468
776,575702.9125427636
2,8, 1, 8, 0,15, 0.00,60.00,Monday
12,3165225.2735228969
776,377716.1693903115
2,8, 1, 8, 0,16, 0.00,60.00,Monday
12,5800528.802602056
776,0.0
2,8, 1, 8, 0,17, 0.00,60.00,Monday
12,3835999.841467601
776,1549234.9935709378
2,8, 1, 8, 0,18, 0.00,60.00,Monday
12,6256448.527439949
776,3377860.0842583139
2,8, 1, 8, 0,19, 0.00,60.00,Monday
12,12929505.639680818
776,4595496.576464353
2,8, 1, 8, 0,20, 0.00,60.00,Monday
12,4919831.157896677
776,5462334.675025219
2,8, 1, 8, 0,21, 0.00,60.00,Monday
12,5212575.099932358
776,5154323.598476542
2,8, 1, 8, 0,22, 0.00,60.00,Monday
12,5982787.114501906
776,6194086.519170307
2,8, 1, 8, 0,23, 0.00,60.00,Monday
12,4062691.8321410526
776,6215054.164126947
2,8, 1, 8, 0,24, 0.00,60.00,Monday
12,3137583.241322195
776,7890090.695061652
2,9, 1, 9, 0, 1, 0.00,60.00,Tuesday
12,2415510.448618973
776,9210857.400276792
2,9, 1, 9, 0, 2, 0.00,60.00,Tuesday
12,3317849.1161034696
776,9756864.184477078
2,9, 1, 9, 0, 3, 0.00,60.00,Tuesday
12,2039467.0234622926
776,10289346.926021642
2,9, 1, 9, 0, 4, 0.00,60.00,Tuesday
12,2062580.3638329083
776,10764104.291276
2,9, 1, 9, 0, 5, 0.00,60.00,Tuesday
12,1993102.9008661707
776,11014978.475371782
2,9, 1, 9, 0, 6, 0.00,60.00,Tuesday
12,2300639.070051572
776,11300866.072620247
2,9, 1, 9, 0, 7, 0.00,60.00,Tuesday
12,3063622.2405823578
776,11231488.075541713
2,9, 1, 9, 0, 8, 0.00,60.00,Tuesday
12,4772017.424417965
776,9706335.791214737
2,9, 1, 9, 0, 9, 0.00,60.00,Tuesday
12,3226876.183114286
776,7801513.148277011
2,9, 1, 9, 0,10, 0.00,60.00,Tuesday
12,4345225.132798159
776,6257807.142929911
2,9, 1, 9, 0,11, 0.00,60.00,Tuesday
12,4288599.041986486
776,4982987.913326417
2,9, 1, 9, 0,12, 0.00,60.00,Tuesday
12,3155793.951118379
776,4085421.933776182
2,9, 1, 9, 0,13, 0.00,60.00,Tuesday
12,4296953.238319585
776,3643276.539191267
2,9, 1, 9, 0,14, 0.00,60.00,Tuesday
12,3065466.2365899279
776,3006784.681541486
2,9, 1, 9, 0,15, 0.00,60.00,Tuesday
12,3198479.832622329
776,2122576.945101757
2,9, 1, 9, 0,16, 0.00,60.00,Tuesday
12,3844340.1818256995
776,1995107.0729292629
2,9, 1, 9, 0,17, 0.00,60.00,Tuesday
12,4450997.256341007
776,2977679.5339867488
2,9, 1, 9, 0,18, 0.00,60.00,Tuesday
12,5011854.676997265
776,3903212.9435151128
2,9, 1, 9, 0,19, 0.00,60.00,Tuesday
12,5538304.640316865
776,4460223.766500535
2,9, 1, 9, 0,20, 0.00,60.00,Tuesday
12,5424675.149993138
776,4589684.290379899
2,9, 1, 9, 0,21, 0.00,60.00,Tuesday
12,5225462.189424869
776,5830506.882137908
2,9, 1, 9, 0,22, 0.00,60.00,Tuesday
12,4821023.689507392
776,6567712.95262541
2,9, 1, 9, 0,23, 0.00,60.00,Tuesday
12,5299711.088803073
776,7543873.734483957
2,9, 1, 9, 0,24, 0.00,60.00,Tuesday
12,7539196.03768472
776,9437661.523711399
2,10, 1,10, 0, 1, 0.00,60.00,Wednesday
12,2123677.8988344569
776,10193349.657652252
2,10, 1,10, 0, 2, 0.00,60.00,Wednesday
12,2209930.0217930257
776,10923076.206014429
2,10, 1,10, 0, 3, 0.00,60.00,Wednesday
12,2135178.138406336
776,11173858.045445966
2,10, 1,10, 0, 4, 0.00,60.00,Wednesday
12,2092518.6618487749
776,12334961.440313867
2,10, 1,10, 0, 5, 0.00,60.00,Wednesday
12,2028875.737983472
776,12891972.848842787
2,10, 1,10, 0, 6, 0.00,60.00,Wednesday
12,3467828.350634328
776,13244443.84835571
2,10, 1,10, 0, 7, 0.00,60.00,Wednesday
12,3009973.7127188697
776,12554000.802728938
2,10, 1,10, 0, 8, 0.00,60.00,Wednesday
12,3641348.3102684847
776,12069152.716407372
2,10, 1,10, 0, 9, 0.00,60.00,Wednesday
12,3344608.875617473
776,9674714.590549183
2,10, 1,10, 0,10, 0.00,60.00,Wednesday
12,14905704.087184914
776,7870093.907977249
2,10, 1,10, 0,11, 0.00,60.00,Wednesday
12,11346523.102943538
776,5802785.069353044
2,10, 1,10, 0,12, 0.00,60.00,Wednesday
12,3303152.643954834
776,3334584.374485814
2,10, 1,10, 0,13, 0.00,60.00,Wednesday
12,3055498.0195666688
776,1702044.5608358698
2,10, 1,10, 0,14, 0.00,60.00,Wednesday
12,3108461.582135797
776,1033154.3388124794
2,10, 1,10, 0,15, 0.00,60.00,Wednesday
12,3163430.3598315578
776,283537.36862977928
2,10, 1,10, 0,16, 0.00,60.00,Wednesday
12,3240596.0146110549
776,273058.6404903069
2,10, 1,10, 0,17, 0.00,60.00,Wednesday
12,3887597.580173964
776,1691356.7030984883
2,10, 1,10, 0,18, 0.00,60.00,Wednesday
12,6185655.486221588
776,3261357.1994025509
2,10, 1,10, 0,19, 0.00,60.00,Wednesday
12,6645745.559285468
776,4162426.699766671
2,10, 1,10, 0,20, 0.00,60.00,Wednesday
12,14729686.318849992
776,4352924.528841018
2,10, 1,10, 0,21, 0.00,60.00,Wednesday
12,5258322.582797818
776,4848687.625595686
2,10, 1,10, 0,22, 0.00,60.00,Wednesday
12,4785889.411245398
776,6397983.268445834
2,10, 1,10, 0,23, 0.00,60.00,Wednesday
12,4165328.585132785
776,7321130.579183411
2,10, 1,10, 0,24, 0.00,60.00,Wednesday
12,4335201.149350077
776,9837193.661627407
2,11, 1,11, 0, 1, 0.00,60.00,Thursday
12,2356036.2804777959
776,10338852.298917195
2,11, 1,11, 0, 2, 0.00,60.00,Thursday
12,2216902.315171725
776,11288911.194139528
2,11, 1,11, 0, 3, 0.00,60.00,Thursday
12,2138141.7807966165
776,11329359.832270887
2,11, 1,11, 0, 4, 0.00,60.00,Thursday
12,2089526.158357509
776,12177945.316675688
2,11, 1,11, 0, 5, 0.00,60.00,Thursday
12,3188314.2632375357
776,12703822.673639143
2,11, 1,11, 0, 6, 0.00,60.00,Thursday
12,2238439.6625729228
776,12295077.326071142
2,11, 1,11, 0, 7, 0.00,60.00,Thursday
12,3078653.27809804
776,12020163.929007125
2,11, 1,11, 0, 8, 0.00,60.00,Thursday
12,4811504.0700947609
776,11687305.30760733
2,11, 1,11, 0, 9, 0.00,60.00,Thursday
12,12946024.089032842
776,11408959.316725195
2,11, 1,11, 0,10, 0.00,60.00,Thursday
12,4919370.357280196
776,8055803.608890605
2,11, 1,11, 0,11, 0.00,60.00,Thursday
12,3004431.6612975245
776,4943244.291941237
2,11, 1,11, 0,12, 0.00,60.00,Thursday
12,8678798.750343793
776,3391284.1465035399
2,11, 1,11, 0,13, 0.00,60.00,Thursday
12,2966224.157660871
776,2154815.225611204
2,11, 1,11, 0,14, 0.00,60.00,Thursday
12,2906764.2690339109
776,1408147.1116766763
2,11, 1,11, 0,15, 0.00,60.00,Thursday
12,3008265.629264794
776,1586639.5194870216
2,11, 1,11, 0,16, 0.00,60.00,Thursday
12,4256526.766849752
776,2087429.20487693
2,11, 1,11, 0,17, 0.00,60.00,Thursday
12,3822925.3725367465
776,2549695.895821282
2,11, 1,11, 0,18, 0.00,60.00,Thursday
12,5978088.724174681
776,2377181.195132513
2,11, 1,11, 0,19, 0.00,60.00,Thursday
12,5630249.8092849249
776,2128589.0375592617
2,11, 1,11, 0,20, 0.00,60.00,Thursday
12,7735240.715572151
776,2910743.3096548027
2,11, 1,11, 0,21, 0.00,60.00,Thursday
12,5194287.712217004
776,3473849.403963901
2,11, 1,11, 0,22, 0.00,60.00,Thursday
12,4746410.425500406
776,3305066.108121087
2,11, 1,11, 0,23, 0.00,60.00,Thursday
12,5306050.845746944
776,4147488.3106282998
2,11, 1,11, 0,24, 0.00,60.00,Thursday
12,2998402.302018316
776,4984881.576139785
2,12, 1,12, 0, 1, 0.00,60.00,Friday
12,2353634.7943258725
776,5964252.872317327
2,12, 1,12, 0, 2, 0.00,60.00,Friday
12,2138478.776110962
776,7174042.108356438
2,12, 1,12, 0, 3, 0.00,60.00,Friday
12,2073888.452870013
776,7957999.193483488
2,12, 1,12, 0, 4, 0.00,60.00,Friday
12,2038019.3459625752
776,9475392.070934954
2,12, 1,12, 0, 5, 0.00,60.00,Friday
12,1982599.5669067163
776,10463870.418721492
2,12, 1,12, 0, 6, 0.00,60.00,Friday
12,7342620.932481911
776,10976727.30219788
2,12, 1,12, 0, 7, 0.00,60.00,Friday
12,10734292.028200459
776,11852319.101053378
2,12, 1,12, 0, 8, 0.00,60.00,Friday
12,4203060.860262583
776,10995719.812919122
2,12, 1,12, 0, 9, 0.00,60.00,Friday
12,3271551.283424338
776,10002701.366971406
2,12, 1,12, 0,10, 0.00,60.00,Friday
12,3164377.6542613769
776,9141932.785876017
2,12, 1,12, 0,11, 0.00,60.00,Friday
12,23363004.045073235
776,8717393.666918718
2,12, 1,12, 0,12, 0.00,60.00,Friday
12,9348661.516309435
776,6903756.945529459
2,12, 1,12, 0,13, 0.00,60.00,Friday
12,3933578.26354646
776,6731931.025427412
2,12, 1,12, 0,14, 0.00,60.00,Friday
12,4291337.774608265
776,6479229.820370821
2,12, 1,12, 0,15, 0.00,60.00,Friday
12,3196155.8844462109
776,6270282.787628582
2,12, 1,12, 0,16, 0.00,60.00,Friday
12,3349728.2496672605
776,5999207.519684015
2,12, 1,12, 0,17, 0.00,60.00,Friday
12,3988100.611311237
776,6964732.794093693
2,12, 1,12, 0,18, 0.00,60.00,Friday
12,7431674.600715987
776,7109754.204166099
2,12, 1,12, 0,19, 0.00,60.00,Friday
12,5561715.536119375
776,6580954.137047536
2,12, 1,12, 0,20, 0.00,60.00,Friday
12,7056491.81585661
776,6347693.219056186
2,12, 1,12, 0,21, 0.00,60.00,Friday
12,6500324.94003982
776,7309866.4377597919
2,12, 1,12, 0,22, 0.00,60.00,Friday
12,7825925.759801311
776,7979490.451295801
2,12, 1,12, 0,23, 0.00,60.00,Friday
12,4015729.418021015
776,8716558.281511065
2,12, 1,12, 0,24, 0.00,60.00,Friday
12,4292704.971170837
776,9200132.910588157
2,13, 1,13, 0, 1, 0.00,60.00,Saturday
12,2334239.0682925169
776,9084028.645777787
2,13, 1,13, 0, 2, 0.00,60.00,Saturday
12,4735118.843254579
776,8499362.004002067
2,13, 1,13, 0, 3, 0.00,60.00,Saturday
12,1911964.6033562995
776,8875646.168936255
2,13, 1,13, 0, 4, 0.00,60.00,Saturday
12,2022484.8708149663
776,8660300.934851006
2,13, 1,13, 0, 5, 0.00,60.00,Saturday
12,1947027.1886920552
776,8597394.088064205
2,13, 1,13, 0, 6, 0.00,60.00,Saturday
12,18315444.610909087
776,9705384.434418135
2,13, 1,13, 0, 7, 0.00,60.00,Saturday
12,2384031.443178535
776,9194192.56387778
2,13, 1,13, 0, 8, 0.00,60.00,Saturday
12,3533092.5121534697
776,8141715.675851759
2,13, 1,13, 0, 9, 0.00,60.00,Saturday
12,3265185.3004055845
776,5507373.786552224
2,13, 1,13, 0,10, 0.00,60.00,Saturday
12,5580605.491490234
776,3714641.4718963846
2,13, 1,13, 0,11, 0.00,60.00,Saturday
12,2946022.41365389
776,2137083.030418064
2,13, 1,13, 0,12, 0.00,60.00,Saturday
12,5303521.952283417
776,672720.9000281029
2,13, 1,13, 0,13, 0.00,60.00,Saturday
12,9831453.625992939
776,0.0
2,13, 1,13, 0,14, 0.00,60.00,Saturday
12,5287526.095984469
776,0.0
2,13, 1,13, 0,15, 0.00,60.00,Saturday
12,2982807.2578609155
776,0.0
2,13, 1,13, 0,16, 0.00,60.00,Saturday
12,4410984.527111526
776,0.0
2,13, 1,13, 0,17, 0.00,60.00,Saturday
12,3773338.1536601118
776,0.0
2,13, 1,13, 0,18, 0.00,60.00,Saturday
12,6225393.107359124
776,0.0
2,13, 1,13, 0,19, 0.00,60.00,Saturday
12,11129704.600260495
776,297845.743493009
2,13, 1,13, 0,20, 0.00,60.00,Saturday
12,6299386.214160474
776,298937.8647420068
2,13, 1,13, 0,21, 0.00,60.00,Saturday
12,8367640.208872875
776,828284.2483327912
2,13, 1,13, 0,22, 0.00,60.00,Saturday
12,24779161.4144105
776,2315264.9736414456
2,13, 1,13, 0,23, 0.00,60.00,Saturday
12,2903128.6885497809
776,3478393.7887560187
2,13, 1,13, 0,24, 0.00,60.00,Saturday
12,4199804.2409424339
776,4100030.8791924656
2,14, 1,14, 0, 1, 0.00,60.00,Sunday
12,2239369.5776532308
776,4121985.4063747294
2,14, 1,14, 0, 2, 0.00,60.00,Sunday
12,2073811.9013099678
776,3780982.7389413246
2,14, 1,14, 0, 3, 0.00,60.00,Sunday
12,2004118.840275363
776,4297200.083533307
2,14, 1,14, 0, 4, 0.00,60.00,Sunday
12,4615206.276683606
776,4762288.413791296
2,14, 1,14, 0, 5, 0.00,60.00,Sunday
12,13014294.796061602
776,5699864.047346951
2,14, 1,14, 0, 6, 0.00,60.00,Sunday
12,2167887.177534262
776,5312125.47711441
2,14, 1,14, 0, 7, 0.00,60.00,Sunday
12,7500584.023035742
776,5822784.894795016
2,14, 1,14, 0, 8, 0.00,60.00,Sunday
12,4354109.714992444
776,5466934.654469478
2,14, 1,14, 0, 9, 0.00,60.00,Sunday
12,3162874.4463036574
776,4382625.728081305
2,14, 1,14, 0,10, 0.00,60.00,Sunday
12,6282588.7489843289
776,3258582.7101354377
2,14, 1,14, 0,11, 0.00,60.00,Sunday
12,3316312.0526016589
776,1979881.0675020589
2,14, 1,14, 0,12, 0.00,60.00,Sunday
12,2939255.9680462197
776,32727.572526623277
2,14, 1,14, 0,13, 0.00,60.00,Sunday
12,4262089.816925309
776,0.0
2,14, 1,14, 0,14, 0.00,60.00,Sunday
12,2837270.31156741
776,0.0
2,14, 1,14, 0,15, 0.00,60.00,Sunday
12,2978026.541765814
776,0.0
2,14, 1,14, 0,16, 0.00,60.00,Sunday
12,3066133.1576015648
776,563591.5441068627
2,14, 1,14, 0,17, 0.00,60.00,Sunday
12,9068806.53119638
776,1414721.0465706886
2,14, 1,14, 0,18, 0.00,60.00,Sunday
12,7908943.760077032
776,1307907.641168841
2,14, 1,14, 0,19, 0.00,60.00,Sunday
12,5255579.804554511
776,1635926.3068497235
2,14, 1,14, 0,20, 0.00,60.00,Sunday
12,5379961.972290556
776,2243591.843405219
2,14, 1,14, 0,21, 0.00,60.00,Sunday
12,5177917.7310407
776,3335857.64354985
2,14, 1,14, 0,22, 0.00,60.00,Sunday
12,5970215.34355275
776,4193947.1028453998
2,14, 1,14, 0,23, 0.00,60.00,Sunday
12,4034784.234652386
776,4844278.222630576
2,14, 1,14, 0,24, 0.00,60.00,Sunday
12,4279139.7398691889
776,6205595.907762529
2,15, 1,15, 0, 1, 0.00,60.00,Monday
12,2288735.28770417
776,6855729.151481115
2,15, 1,15, 0, 2, 0.00,60.00,Monday
12,2146800.8774666355
776,7610701.279918197
2,15, 1,15, 0, 3, 0.00,60.00,Monday
12,2076065.7858414688
776,8072243.465560498
2,15, 1,15, 0, 4, 0.00,60.00,Monday
12,2025847.242934978
776,8836723.999370138
2,15, 1,15, 0, 5, 0.00,60.00,Monday
12,1960378.9381806874
776,9297957.99872022
2,15, 1,15, 0, 6, 0.00,60.00,Monday
12,2261037.917739998
776,9223000.684754709
2,15, 1,15, 0, 7, 0.00,60.00,Monday
12,3042091.4166435918
776,10101769.589508824
2,15, 1,15, 0, 8, 0.00,60.00,Monday
12,4737899.27018959
776,9311002.771602158