Program Version,EnergyPlus, Version 9.2.0-921312fa1d, YMD=2019.10.24 09:57
1,5,Environment Title[],Latitude[deg],Longitude[deg],Time Zone[],Elevation[m]
2,8,Day of Simulation[],Month[],Day of Month[],DST Indicator[1=yes 0=no],Hour[],StartMinute[],EndMinute[],DayType
3,5,Cumulative Day of Simulation[],Month[],Day of Month[],DST Indicator[1=yes 0=no],DayType  ! When Daily Meters Requested
4,2,Cumulative Days of Simulation[],Month[]  ! When Monthly Meters Requested
5,1,Cumulative Days of Simulation[] ! When Run Period Meters Requested
6,1,Calendar Year of Simulation[] ! When Annual Meters Requested
12,1,Electricity:Facility [J] !Hourly
588,1,Gas:Facility [J] !Hourly
End of Data Dictionary
1,RUN PERIOD 1,  39.83,-104.65,  -7.00,1650.00
2,1, 1, 1, 0, 1, 0.00,60.00,Monday
12,2277245.611688095
588,1956126.1046528468
2,1, 1, 1, 0, 2, 0.00,60.00,Monday
12,2084196.3616768777
588,4325853.51942509
2,1, 1, 1, 0, 3, 0.00,60.00,Monday
12,2030778.703432306
588,5696038.341147687
2,1, 1, 1, 0, 4, 0.00,60.00,Monday
12,1990975.2617074913
588,7006997.373518505
2,1, 1, 1, 0, 5, 0.00,60.00,Monday
12,1931796.9844574198
588,7798267.992432311
2,1, 1, 1, 0, 6, 0.00,60.00,Monday
12,2235779.28416037
588,7897684.692761516
2,1, 1, 1, 0, 7, 0.00,60.00,Monday
12,2998735.3366031979
588,7826883.814451867
2,1, 1, 1, 0, 8, 0.00,60.00,Monday
12,3553994.9276420136
588,7485736.333862556
2,1, 1, 1, 0, 9, 0.00,60.00,Monday
12,10657306.26732618
588,6890244.912189965
2,1, 1, 1, 0,10, 0.00,60.00,Monday
12,2656717.765037366
588,4677715.8754798709
2,1, 1, 1, 0,11, 0.00,60.00,Monday
12,3131590.0122947327
588,2649354.298546093
2,1, 1, 1, 0,12, 0.00,60.00,Monday
12,3195123.796847291
588,1760422.6110868564
2,1, 1, 1, 0,13, 0.00,60.00,Monday
12,4307323.170851111
588,1877683.9291782804
2,1, 1, 1, 0,14, 0.00,60.00,Monday
12,3047796.963119351
588,2240835.7461141159
2,1, 1, 1, 0,15, 0.00,60.00,Monday
12,4363563.496118796
588,1865461.0815086468
2,1, 1, 1, 0,16, 0.00,60.00,Monday
12,4658646.345763579
588,1905262.3963348729
2,1, 1, 1, 0,17, 0.00,60.00,Monday
12,3822010.3886391019
588,2698646.8866375468
2,1, 1, 1, 0,18, 0.00,60.00,Monday
12,6277520.266303464
588,4084568.537558473
2,1, 1, 1, 0,19, 0.00,60.00,Monday
12,13318533.513898779
588,5436330.4308310509
2,1, 1, 1, 0,20, 0.00,60.00,Monday
12,5780411.258390643
588,5699924.366949939
2,1, 1, 1, 0,21, 0.00,60.00,Monday
12,5161428.689069501
588,5699939.762058476
2,1, 1, 1, 0,22, 0.00,60.00,Monday
12,4814445.7248982139
588,6222568.324598444
2,1, 1, 1, 0,23, 0.00,60.00,Monday
12,5301623.755457217
588,7117589.068153356
2,1, 1, 1, 0,24, 0.00,60.00,Monday
12,3082027.500213047
588,9149240.595363576
2,2, 1, 2, 0, 1, 0.00,60.00,Tuesday
12,2430857.936189531
588,10016137.331594319
2,2, 1, 2, 0, 2, 0.00,60.00,Tuesday
12,2194237.1207273055
588,10099672.490306696
2,2, 1, 2, 0, 3, 0.00,60.00,Tuesday
12,2117421.1200723696
588,10242150.465385003
2,2, 1, 2, 0, 4, 0.00,60.00,Tuesday
12,2068020.4857291654
588,11049546.515407907
2,2, 1, 2, 0, 5, 0.00,60.00,Tuesday
12,1977897.0804993823
588,10217131.796930133
2,2, 1, 2, 0, 6, 0.00,60.00,Tuesday
12,2281817.5389155128
588,10313303.695986549
2,2, 1, 2, 0, 7, 0.00,60.00,Tuesday
12,3033201.722154066
588,9635328.907602538
2,2, 1, 2, 0, 8, 0.00,60.00,Tuesday
12,4751005.4544791369
588,8626804.074767672
2,2, 1, 2, 0, 9, 0.00,60.00,Tuesday
12,3232371.2952085405
588,8088238.530163466
2,2, 1, 2, 0,10, 0.00,60.00,Tuesday
12,4337164.039551408
588,5875178.560118502
2,2, 1, 2, 0,11, 0.00,60.00,Tuesday
12,4257840.21067812
588,3394164.577770839
2,2, 1, 2, 0,12, 0.00,60.00,Tuesday
12,3115275.769108208
588,1957493.3995995676
2,2, 1, 2, 0,13, 0.00,60.00,Tuesday
12,4252498.808803317
588,1325072.5344059817
2,2, 1, 2, 0,14, 0.00,60.00,Tuesday
12,3030174.9769324806
588,1154060.0027574669
2,2, 1, 2, 0,15, 0.00,60.00,Tuesday
12,2988380.7350374318
588,543282.6714003594
2,2, 1, 2, 0,16, 0.00,60.00,Tuesday
12,4425100.229565893
588,1009206.5726555446
2,2, 1, 2, 0,17, 0.00,60.00,Tuesday
12,3801569.852183107
588,1462574.0784785378
2,2, 1, 2, 0,18, 0.00,60.00,Tuesday
12,5013049.707757199
588,1847239.2709778967
2,2, 1, 2, 0,19, 0.00,60.00,Tuesday
12,5506601.066201857
588,2796742.8958706089
2,2, 1, 2, 0,20, 0.00,60.00,Tuesday
12,6539380.601526683
588,3447671.6155553727
2,2, 1, 2, 0,21, 0.00,60.00,Tuesday
12,5119115.714806085
588,4411116.563261047
2,2, 1, 2, 0,22, 0.00,60.00,Tuesday
12,4779465.869709343
588,4387181.571262459
2,2, 1, 2, 0,23, 0.00,60.00,Tuesday
12,4107684.191202143
588,4296539.526615438
2,2, 1, 2, 0,24, 0.00,60.00,Tuesday
12,7528023.420681626
588,5421387.277188517
2,3, 1, 3, 0, 1, 0.00,60.00,Wednesday
12,2049738.6707694173
588,6264417.293490982
2,3, 1, 3, 0, 2, 0.00,60.00,Wednesday
12,2137192.3062371297
588,7106541.263877564
2,3, 1, 3, 0, 3, 0.00,60.00,Wednesday
12,2069246.0641228108
588,7714413.885184047
2,3, 1, 3, 0, 4, 0.00,60.00,Wednesday
12,3165603.5752555497
588,8467042.408726113
2,3, 1, 3, 0, 5, 0.00,60.00,Wednesday
12,1875348.78822694
588,9034854.244279055
2,3, 1, 3, 0, 6, 0.00,60.00,Wednesday
12,2263180.1219115366
588,9335401.754975079
2,3, 1, 3, 0, 7, 0.00,60.00,Wednesday
12,3016660.014781695
588,8767388.476606425
2,3, 1, 3, 0, 8, 0.00,60.00,Wednesday
12,3577772.1897176296
588,8733325.027656489
2,3, 1, 3, 0, 9, 0.00,60.00,Wednesday
12,3290377.3640701675
588,6829196.866994349
2,3, 1, 3, 0,10, 0.00,60.00,Wednesday
12,14644232.646065418
588,6132837.244712404
2,3, 1, 3, 0,11, 0.00,60.00,Wednesday
12,11737084.295619574
588,4243818.382396099
2,3, 1, 3, 0,12, 0.00,60.00,Wednesday
12,2991404.6933023456
588,3423048.969559812
2,3, 1, 3, 0,13, 0.00,60.00,Wednesday
12,3109397.442745646
588,3485947.094476333
2,3, 1, 3, 0,14, 0.00,60.00,Wednesday
12,3169432.909000107
588,4232308.968122599
2,3, 1, 3, 0,15, 0.00,60.00,Wednesday
12,3225465.2721964234
588,3538498.1391666058
2,3, 1, 3, 0,16, 0.00,60.00,Wednesday
12,3323849.481324498
588,4641353.167443335
2,3, 1, 3, 0,17, 0.00,60.00,Wednesday
12,3963314.039884183
588,5664185.818921971
2,3, 1, 3, 0,18, 0.00,60.00,Wednesday
12,6243881.233395749
588,6327027.380462606
2,3, 1, 3, 0,19, 0.00,60.00,Wednesday
12,6685382.985544726
588,6285978.802922935
2,3, 1, 3, 0,20, 0.00,60.00,Wednesday
12,14592286.96744335
588,6569427.344060523
2,3, 1, 3, 0,21, 0.00,60.00,Wednesday
12,5442539.016737677
588,8113737.406652611
2,3, 1, 3, 0,22, 0.00,60.00,Wednesday
12,4833980.901117004
588,9322032.152326797
2,3, 1, 3, 0,23, 0.00,60.00,Wednesday
12,4232338.154356766
588,10837110.706498966
2,3, 1, 3, 0,24, 0.00,60.00,Wednesday
12,4380776.903956269
588,12249367.789168636
2,4, 1, 4, 0, 1, 0.00,60.00,Thursday
12,2417738.790787529
588,13574919.150772356
2,4, 1, 4, 0, 2, 0.00,60.00,Thursday
12,2299672.289766885
588,15631836.976012009
2,4, 1, 4, 0, 3, 0.00,60.00,Thursday
12,2236704.2253290025
588,16500913.69075312
2,4, 1, 4, 0, 4, 0.00,60.00,Thursday
12,2173192.7585988098
588,16567916.886037659
2,4, 1, 4, 0, 5, 0.00,60.00,Thursday
12,3265243.5954534627
588,16762839.276226379
2,4, 1, 4, 0, 6, 0.00,60.00,Thursday
12,2320248.2067664226
588,16585983.766021708
2,4, 1, 4, 0, 7, 0.00,60.00,Thursday
12,3150811.2953486174
588,15806282.20461499
2,4, 1, 4, 0, 8, 0.00,60.00,Thursday
12,4858704.29429383
588,14195842.411635897
2,4, 1, 4, 0, 9, 0.00,60.00,Thursday
12,12788407.891521253
588,13209668.586607786
2,4, 1, 4, 0,10, 0.00,60.00,Thursday
12,5012439.990733601
588,10662871.975907103
2,4, 1, 4, 0,11, 0.00,60.00,Thursday
12,3078899.7767544125
588,8960357.510333354
2,4, 1, 4, 0,12, 0.00,60.00,Thursday
12,8490813.209652674
588,8433854.637539948
2,4, 1, 4, 0,13, 0.00,60.00,Thursday
12,3457776.002300481
588,7073945.387089476
2,4, 1, 4, 0,14, 0.00,60.00,Thursday
12,3166439.6601183859
588,6313494.782928341
2,4, 1, 4, 0,15, 0.00,60.00,Thursday
12,3082649.252805685
588,5489534.95958935
2,4, 1, 4, 0,16, 0.00,60.00,Thursday
12,4331389.657606021
588,6036581.861545512
2,4, 1, 4, 0,17, 0.00,60.00,Thursday
12,3878447.9359466095
588,5461481.962203379
2,4, 1, 4, 0,18, 0.00,60.00,Thursday
12,5330721.314431693
588,4980585.279104829
2,4, 1, 4, 0,19, 0.00,60.00,Thursday
12,6407416.805571591
588,4729952.092100871
2,4, 1, 4, 0,20, 0.00,60.00,Thursday
12,7458519.6578559479
588,4313620.34705217
2,4, 1, 4, 0,21, 0.00,60.00,Thursday
12,5455512.471252813
588,4555481.151445422
2,4, 1, 4, 0,22, 0.00,60.00,Thursday
12,4755859.226675031
588,4616298.041890817
2,4, 1, 4, 0,23, 0.00,60.00,Thursday
12,5323161.292265368
588,5094295.8002951969
2,4, 1, 4, 0,24, 0.00,60.00,Thursday
12,2814986.691237409
588,4802244.440038044
2,5, 1, 5, 0, 1, 0.00,60.00,Friday
12,2353573.1216576679
588,5961016.918433164
2,5, 1, 5, 0, 2, 0.00,60.00,Friday
12,1919504.812426546
588,5129085.19572365
2,5, 1, 5, 0, 3, 0.00,60.00,Friday
12,1838039.331439138
588,5027605.768290165
2,5, 1, 5, 0, 4, 0.00,60.00,Friday
12,1956126.2837232496
588,5178477.723730916
2,5, 1, 5, 0, 5, 0.00,60.00,Friday
12,1879362.163497448
588,5047022.303053463
2,5, 1, 5, 0, 6, 0.00,60.00,Friday
12,7219076.456764305
588,4917997.406098643
2,5, 1, 5, 0, 7, 0.00,60.00,Friday
12,10555933.547573794
588,6310477.273250752
2,5, 1, 5, 0, 8, 0.00,60.00,Friday
12,3894858.4903917398
588,4006617.472292627
2,5, 1, 5, 0, 9, 0.00,60.00,Friday
12,3139210.718375393
588,3058396.1796603517
2,5, 1, 5, 0,10, 0.00,60.00,Friday
12,2833087.7844267145
588,1203780.3404418685
2,5, 1, 5, 0,11, 0.00,60.00,Friday
12,22992251.098219623
588,1622595.226514352
2,5, 1, 5, 0,12, 0.00,60.00,Friday
12,8742849.249093343
588,0.0
2,5, 1, 5, 0,13, 0.00,60.00,Friday
12,3644326.5949686218
588,0.0
2,5, 1, 5, 0,14, 0.00,60.00,Friday
12,3987472.9692499788
588,0.0
2,5, 1, 5, 0,15, 0.00,60.00,Friday
12,2896688.2642191809
588,0.0
2,5, 1, 5, 0,16, 0.00,60.00,Friday
12,3235391.906166303
588,0.0
2,5, 1, 5, 0,17, 0.00,60.00,Friday
12,3855362.73242889
588,0.0
2,5, 1, 5, 0,18, 0.00,60.00,Friday
12,6712221.068488381
588,0.0
2,5, 1, 5, 0,19, 0.00,60.00,Friday
12,6028623.186799232
588,438891.3061754776
2,5, 1, 5, 0,20, 0.00,60.00,Friday
12,6917399.696453308
588,1091851.9696758483
2,5, 1, 5, 0,21, 0.00,60.00,Friday
12,6402416.289585004
588,2206571.6653802806
2,5, 1, 5, 0,22, 0.00,60.00,Friday
12,7725807.572376906
588,2865417.012863133
2,5, 1, 5, 0,23, 0.00,60.00,Friday
12,3914465.3042201197
588,3393358.706825692
2,5, 1, 5, 0,24, 0.00,60.00,Friday
12,4201192.804417986
588,4401022.355019689
2,6, 1, 6, 0, 1, 0.00,60.00,Saturday
12,2259782.7767267327
588,5177144.744624754
2,6, 1, 6, 0, 2, 0.00,60.00,Saturday
12,4374106.54940342
588,5591092.107514194
2,6, 1, 6, 0, 3, 0.00,60.00,Saturday
12,2143248.102545893
588,6014353.663425397
2,6, 1, 6, 0, 4, 0.00,60.00,Saturday
12,1968805.6301371419
588,6812067.000774145
2,6, 1, 6, 0, 5, 0.00,60.00,Saturday
12,1923098.7869678944
588,7341875.12390909
2,6, 1, 6, 0, 6, 0.00,60.00,Saturday
12,18179020.497796105
588,8439020.49849967
2,6, 1, 6, 0, 7, 0.00,60.00,Saturday
12,2238890.39697944
588,8187009.370367784
2,6, 1, 6, 0, 8, 0.00,60.00,Saturday
12,3545283.2094155719
588,8291593.043716226
2,6, 1, 6, 0, 9, 0.00,60.00,Saturday
12,3298991.0751506208
588,7281156.748725297
2,6, 1, 6, 0,10, 0.00,60.00,Saturday
12,5626193.489494234
588,6282597.527534707
2,6, 1, 6, 0,11, 0.00,60.00,Saturday
12,2998815.9199082076
588,4894871.487181972
2,6, 1, 6, 0,12, 0.00,60.00,Saturday
12,5357671.091834836
588,3560931.319430797
2,6, 1, 6, 0,13, 0.00,60.00,Saturday
12,10066057.78157361
588,3547251.146908727
2,6, 1, 6, 0,14, 0.00,60.00,Saturday
12,5352265.760935144
588,3516488.285667721
2,6, 1, 6, 0,15, 0.00,60.00,Saturday
12,3047016.9445875769
588,3357388.267054676
2,6, 1, 6, 0,16, 0.00,60.00,Saturday
12,4476392.290907274
588,3459270.6559407219
2,6, 1, 6, 0,17, 0.00,60.00,Saturday
12,3871812.261189893
588,5165011.450146471
2,6, 1, 6, 0,18, 0.00,60.00,Saturday
12,6320161.057043406
588,5062846.224391862
2,6, 1, 6, 0,19, 0.00,60.00,Saturday
12,10619043.730177775
588,5663967.6606030729
2,6, 1, 6, 0,20, 0.00,60.00,Saturday
12,6939247.137681096
588,6544510.425091348
2,6, 1, 6, 0,21, 0.00,60.00,Saturday
12,7948730.934181799
588,6782927.643505104
2,6, 1, 6, 0,22, 0.00,60.00,Saturday
12,24958002.799204504
588,8342839.391031895
2,6, 1, 6, 0,23, 0.00,60.00,Saturday
12,3284754.7003806459
588,9178450.536824653
2,6, 1, 6, 0,24, 0.00,60.00,Saturday
12,4305136.902060289
588,10639046.084271376
2,7, 1, 7, 0, 1, 0.00,60.00,Sunday
12,2385663.6841595775
588,11797636.27532253
2,7, 1, 7, 0, 2, 0.00,60.00,Sunday
12,2229978.7997228775
588,11975032.002696326
2,7, 1, 7, 0, 3, 0.00,60.00,Sunday
12,2181794.1391270945
588,13619791.276284563
2,7, 1, 7, 0, 4, 0.00,60.00,Sunday
12,4801704.933386013
588,14847650.587103723
2,7, 1, 7, 0, 5, 0.00,60.00,Sunday
12,12945247.419702406
588,16657560.811535206
2,7, 1, 7, 0, 6, 0.00,60.00,Sunday
12,2446806.067479388
588,16367128.646120284
2,7, 1, 7, 0, 7, 0.00,60.00,Sunday
12,7682086.726860933
588,16506656.023185734
2,7, 1, 7, 0, 8, 0.00,60.00,Sunday
12,4486752.1306556719
588,12376082.595385382
2,7, 1, 7, 0, 9, 0.00,60.00,Sunday
12,3297118.4854366874
588,11425135.814486474
2,7, 1, 7, 0,10, 0.00,60.00,Sunday
12,6171440.870945754
588,10665852.051986425
2,7, 1, 7, 0,11, 0.00,60.00,Sunday
12,4017659.3205163686
588,9604589.795606418
2,7, 1, 7, 0,12, 0.00,60.00,Sunday
12,3258014.4422229107
588,8579570.127256437
2,7, 1, 7, 0,13, 0.00,60.00,Sunday
12,4594527.421088634
588,8040545.409534206
2,7, 1, 7, 0,14, 0.00,60.00,Sunday
12,3167582.9317320475
588,7883933.895952728
2,7, 1, 7, 0,15, 0.00,60.00,Sunday
12,3305677.5236700919
588,7747220.645738531
2,7, 1, 7, 0,16, 0.00,60.00,Sunday
12,3382490.93827211
588,7718259.93840714
2,7, 1, 7, 0,17, 0.00,60.00,Sunday
12,9146823.660380118
588,7655059.624449462
2,7, 1, 7, 0,18, 0.00,60.00,Sunday
12,8195293.134445647
588,6744332.555146102
2,7, 1, 7, 0,19, 0.00,60.00,Sunday
12,5326736.821820875
588,5982094.844244189
2,7, 1, 7, 0,20, 0.00,60.00,Sunday
12,5452792.2911984189
588,6064985.666878089
2,7, 1, 7, 0,21, 0.00,60.00,Sunday
12,5244500.434153181
588,6829440.182245743
2,7, 1, 7, 0,22, 0.00,60.00,Sunday
12,6035244.125704914
588,7649656.392621791
2,7, 1, 7, 0,23, 0.00,60.00,Sunday
12,4095585.6294873559
588,8031470.211933555
2,7, 1, 7, 0,24, 0.00,60.00,Sunday
12,4308249.179593649
588,7760981.316423829
2,8, 1, 8, 0, 1, 0.00,60.00,Monday
12,2313661.335035337
588,8161639.482231215
2,8, 1, 8, 0, 2, 0.00,60.00,Monday
12,2167469.0097941125
588,8695154.491208688
2,8, 1, 8, 0, 3, 0.00,60.00,Monday
12,2105626.199546341
588,9623273.092301656
2,8, 1, 8, 0, 4, 0.00,60.00,Monday
12,2089307.1752683933
588,12166455.313106565
2,8, 1, 8, 0, 5, 0.00,60.00,Monday
12,2021862.2794613648
588,12523977.932996409
2,8, 1, 8, 0, 6, 0.00,60.00,Monday
12,2303785.897521648
588,11465979.547859842
2,8, 1, 8, 0, 7, 0.00,60.00,Monday
12,3074485.4432254999
588,11801478.37774201
2,8, 1, 8, 0, 8, 0.00,60.00,Monday
12,4756232.039092869
588,10284904.291565115
2,8, 1, 8, 0, 9, 0.00,60.00,Monday
12,9090743.840436738
588,7910831.977440576
2,8, 1, 8, 0,10, 0.00,60.00,Monday
12,2775495.4163382926
588,5397071.838893093
2,8, 1, 8, 0,11, 0.00,60.00,Monday
12,3164684.665049699
588,4385824.8169273729
2,8, 1, 8, 0,12, 0.00,60.00,Monday
12,4365204.11168221
588,3305680.0203434915
2,8, 1, 8, 0,13, 0.00,60.00,Monday
12,4047557.2446038646
588,1846630.1225272753
2,8, 1, 8, 0,14, 0.00,60.00,Monday
12,2833684.5773434189
588,452469.7723994889
2,8, 1, 8, 0,15, 0.00,60.00,Monday
12,3163048.5888808856
588,263505.9150434529
2,8, 1, 8, 0,16, 0.00,60.00,Monday
12,5800528.809003564
588,0.0
2,8, 1, 8, 0,17, 0.00,60.00,Monday
12,3832738.5292189319
588,1378127.2177288987
2,8, 1, 8, 0,18, 0.00,60.00,Monday
12,6253056.308213476
588,3199874.4930059418
2,8, 1, 8, 0,19, 0.00,60.00,Monday
12,12925659.49873228
588,4393724.143772758
2,8, 1, 8, 0,20, 0.00,60.00,Monday
12,4916107.630818637
588,5266959.487792472
2,8, 1, 8, 0,21, 0.00,60.00,Monday
12,5209252.76787382
588,4980001.428830622
2,8, 1, 8, 0,22, 0.00,60.00,Monday
12,5978779.234883726
588,5983794.589311455
2,8, 1, 8, 0,23, 0.00,60.00,Monday
12,4058652.026049293
588,6003086.204456052
2,8, 1, 8, 0,24, 0.00,60.00,Monday
12,3132960.532943553
588,7647538.012185037
2,9, 1, 9, 0, 1, 0.00,60.00,Tuesday
12,2410542.962427884
588,8950214.28716849
2,9, 1, 9, 0, 2, 0.00,60.00,Tuesday
12,3312605.7864155026
588,9481749.153347083
2,9, 1, 9, 0, 3, 0.00,60.00,Tuesday
12,2033802.2786114834
588,9992118.668069462
2,9, 1, 9, 0, 4, 0.00,60.00,Tuesday
12,2056532.087062428
588,10446752.289527828
2,9, 1, 9, 0, 5, 0.00,60.00,Tuesday
12,1986762.7572684787
588,10682312.273335746
2,9, 1, 9, 0, 6, 0.00,60.00,Tuesday
12,2294011.479944964
588,10953117.60360775
2,9, 1, 9, 0, 7, 0.00,60.00,Tuesday
12,3056873.4763248248
588,10877381.620475404
2,9, 1, 9, 0, 8, 0.00,60.00,Tuesday
12,4765665.454341972
588,9373049.888895752
2,9, 1, 9, 0, 9, 0.00,60.00,Tuesday
12,3221023.0338755
588,7494399.395145971
2,9, 1, 9, 0,10, 0.00,60.00,Tuesday
12,4339924.085650887
588,5979665.9965242049
2,9, 1, 9, 0,11, 0.00,60.00,Tuesday
12,4283957.8027478079
588,4739464.8289425619
2,9, 1, 9, 0,12, 0.00,60.00,Tuesday
12,3151853.0800036389
588,3878644.978370166
2,9, 1, 9, 0,13, 0.00,60.00,Tuesday
12,4293304.181507533
588,3451811.3066193179
2,9, 1, 9, 0,14, 0.00,60.00,Tuesday
12,3062288.2986800635
588,2840038.838255216
2,9, 1, 9, 0,15, 0.00,60.00,Tuesday
12,3195795.030701015
588,1981705.8678744923
2,9, 1, 9, 0,16, 0.00,60.00,Tuesday
12,3840699.4289591556
588,1857849.5989733753
2,9, 1, 9, 0,17, 0.00,60.00,Tuesday
12,4449138.481563749
588,2824502.273714653
2,9, 1, 9, 0,18, 0.00,60.00,Tuesday
12,5008780.223282626
588,3745517.8324377157
2,9, 1, 9, 0,19, 0.00,60.00,Tuesday
12,5535345.180711889
588,4304941.449673374
2,9, 1, 9, 0,20, 0.00,60.00,Tuesday
12,5421779.787084734
588,4437765.115772344
2,9, 1, 9, 0,21, 0.00,60.00,Tuesday
12,5222219.679522192
588,5660372.96675145
2,9, 1, 9, 0,22, 0.00,60.00,Tuesday
12,4817599.093305166
588,6388025.001627503
2,9, 1, 9, 0,23, 0.00,60.00,Tuesday
12,5295978.588501709
588,7348030.269190184
2,9, 1, 9, 0,24, 0.00,60.00,Tuesday
12,7534971.4561909469
588,9216000.69973823
2,10, 1,10, 0, 1, 0.00,60.00,Wednesday
12,2119185.0208821578
588,9957608.998917662
2,10, 1,10, 0, 2, 0.00,60.00,Wednesday
12,2204913.6623777558
588,10659868.723563558
2,10, 1,10, 0, 3, 0.00,60.00,Wednesday
12,2129743.7544810555
588,10888716.89162623
2,10, 1,10, 0, 4, 0.00,60.00,Wednesday
12,2086397.228943421
588,12013770.949236703
2,10, 1,10, 0, 5, 0.00,60.00,Wednesday
12,2022436.0067010488
588,12554081.298778173
2,10, 1,10, 0, 6, 0.00,60.00,Wednesday
12,3460997.5731657485
588,12886034.338216985
2,10, 1,10, 0, 7, 0.00,60.00,Wednesday
12,3003094.0144227074
588,12193024.250639214
2,10, 1,10, 0, 8, 0.00,60.00,Wednesday
12,3634284.657461561
588,11698524.11540284
2,10, 1,10, 0, 9, 0.00,60.00,Wednesday
12,3338326.212313426
588,9345064.369253057
2,10, 1,10, 0,10, 0.00,60.00,Wednesday
12,14899873.802068305
588,7564188.939196988
2,10, 1,10, 0,11, 0.00,60.00,Wednesday
12,11341579.126725942
588,5543870.784192749
2,10, 1,10, 0,12, 0.00,60.00,Wednesday
12,3299442.604632386
588,3139602.197829316
2,10, 1,10, 0,13, 0.00,60.00,Wednesday
12,3052501.4959481309
588,1544837.2110282609
2,10, 1,10, 0,14, 0.00,60.00,Wednesday
12,3105882.048795784
588,897806.6852419882
2,10, 1,10, 0,15, 0.00,60.00,Wednesday
12,3161290.5676751637
588,171262.85641318619
2,10, 1,10, 0,16, 0.00,60.00,Wednesday
12,3238460.47112309
588,161007.05514726547
2,10, 1,10, 0,17, 0.00,60.00,Wednesday
12,3884833.599365932
588,1546331.123828762
2,10, 1,10, 0,18, 0.00,60.00,Wednesday
12,6182448.038633308
588,3093062.9997645278
2,10, 1,10, 0,19, 0.00,60.00,Wednesday
12,6642481.676742292
588,3991171.3631257938
2,10, 1,10, 0,20, 0.00,60.00,Wednesday
12,14726600.192734626
588,4191023.514055937
2,10, 1,10, 0,21, 0.00,60.00,Wednesday
12,5255306.783721168
588,4690428.142505527
2,10, 1,10, 0,22, 0.00,60.00,Wednesday
12,4782473.335655565
588,6218743.727041334
2,10, 1,10, 0,23, 0.00,60.00,Wednesday
12,4161812.821789455
588,7136659.104576934
2,10, 1,10, 0,24, 0.00,60.00,Wednesday
12,4331228.397541605
588,9628744.065552576
2,11, 1,11, 0, 1, 0.00,60.00,Thursday
12,2351950.7730218658
588,10124486.45377473
2,11, 1,11, 0, 2, 0.00,60.00,Thursday
12,2212203.0148892246
588,11042339.747749009
2,11, 1,11, 0, 3, 0.00,60.00,Thursday
12,2133069.8551248025
588,11063236.798264904
2,11, 1,11, 0, 4, 0.00,60.00,Thursday
12,2083802.86340962
588,11877645.053107638
2,11, 1,11, 0, 5, 0.00,60.00,Thursday
12,3182235.2459055867
588,12384857.720132988
2,11, 1,11, 0, 6, 0.00,60.00,Thursday
12,2232207.665323005
588,11968085.54358394
2,11, 1,11, 0, 7, 0.00,60.00,Thursday
12,3072181.0198290196
588,11680565.693766045
2,11, 1,11, 0, 8, 0.00,60.00,Thursday
12,4805053.794046506
588,11348860.473752393
2,11, 1,11, 0, 9, 0.00,60.00,Thursday
12,12939738.611473944
588,11079161.472069156
2,11, 1,11, 0,10, 0.00,60.00,Thursday
12,4914199.645448046
588,7784497.25850205
2,11, 1,11, 0,11, 0.00,60.00,Thursday
12,3000068.0199822664
588,4714284.8130971449
2,11, 1,11, 0,12, 0.00,60.00,Thursday
12,8675109.203012148
588,3197694.134508956
2,11, 1,11, 0,13, 0.00,60.00,Thursday
12,2963142.379979318
588,1993115.0011322969
2,11, 1,11, 0,14, 0.00,60.00,Thursday
12,2903990.2807146369
588,1262596.433700694
2,11, 1,11, 0,15, 0.00,60.00,Thursday
12,3005622.5828695825
588,1447959.347255577
2,11, 1,11, 0,16, 0.00,60.00,Thursday
12,4253774.61062971
588,1943024.0596301109
2,11, 1,11, 0,17, 0.00,60.00,Thursday
12,3820220.0138789967
588,2407746.2103049957
2,11, 1,11, 0,18, 0.00,60.00,Thursday
12,5975487.096069805
588,2240674.220043612
2,11, 1,11, 0,19, 0.00,60.00,Thursday
12,5627729.105397786
588,1996328.1685990433
2,11, 1,11, 0,20, 0.00,60.00,Thursday
12,7732585.770813148
588,2771438.8307422359
2,11, 1,11, 0,21, 0.00,60.00,Thursday
12,5191622.762934909
588,3334019.9919145728
2,11, 1,11, 0,22, 0.00,60.00,Thursday
12,4743763.466425995
588,3166180.6382627857
2,11, 1,11, 0,23, 0.00,60.00,Thursday
12,5303308.638989797
588,4003605.2109933996
2,11, 1,11, 0,24, 0.00,60.00,Thursday
12,2995640.114467625
588,4839950.088826982
2,12, 1,12, 0, 1, 0.00,60.00,Friday
12,2350850.4559533919
588,5818159.135277427
2,12, 1,12, 0, 2, 0.00,60.00,Friday
12,2135662.513777914
588,7026273.326808156
2,12, 1,12, 0, 3, 0.00,60.00,Friday
12,2071049.7276342349
588,7809051.787441466
2,12, 1,12, 0, 4, 0.00,60.00,Friday
12,2035023.8395964264
588,9318218.386988068
2,12, 1,12, 0, 5, 0.00,60.00,Friday
12,1979461.976517783
588,10299241.611479477
2,12, 1,12, 0, 6, 0.00,60.00,Friday
12,7339166.4435163349
588,10795470.882898646
2,12, 1,12, 0, 7, 0.00,60.00,Friday
12,10730369.164583657
588,11646487.145650924
2,12, 1,12, 0, 8, 0.00,60.00,Friday
12,4198873.91054901
588,10776031.309462944
2,12, 1,12, 0, 9, 0.00,60.00,Friday
12,3266993.575678645
588,9763559.255698115
2,12, 1,12, 0,10, 0.00,60.00,Friday
12,3159654.717614846
588,8894121.143687008
2,12, 1,12, 0,11, 0.00,60.00,Friday
12,23358300.772739706
588,8470613.705563387
2,12, 1,12, 0,12, 0.00,60.00,Friday
12,9344438.631893726
588,6682182.911354663
2,12, 1,12, 0,13, 0.00,60.00,Friday
12,3929499.695546416
588,6517929.2849406129
2,12, 1,12, 0,14, 0.00,60.00,Friday
12,4287645.457521582
588,6285494.599550769
2,12, 1,12, 0,15, 0.00,60.00,Friday
12,3192800.042049057
588,6094202.336746092
2,12, 1,12, 0,16, 0.00,60.00,Friday
12,3346655.8996532747
588,5838001.863261635
2,12, 1,12, 0,17, 0.00,60.00,Friday
12,3985142.8287724705
588,6809538.472630978
2,12, 1,12, 0,18, 0.00,60.00,Friday
12,7428963.58559448
588,6967505.739303798
2,12, 1,12, 0,19, 0.00,60.00,Friday
12,5559103.2973387
588,6443892.425627224
2,12, 1,12, 0,20, 0.00,60.00,Friday
12,7053805.160128759
588,6206724.743650833
2,12, 1,12, 0,21, 0.00,60.00,Friday
12,6497506.758500986
588,7161996.955422802
2,12, 1,12, 0,22, 0.00,60.00,Friday
12,7823059.731834342
588,7829110.474395354
2,12, 1,12, 0,23, 0.00,60.00,Friday
12,4012698.491003858
588,8557526.082434673
2,12, 1,12, 0,24, 0.00,60.00,Friday
12,4289424.398729816
588,9028001.859972604
2,13, 1,13, 0, 1, 0.00,60.00,Saturday
12,2330683.603166266
588,8897474.025758096
2,13, 1,13, 0, 2, 0.00,60.00,Saturday
12,4731302.063014556
588,8299096.224796542
2,13, 1,13, 0, 3, 0.00,60.00,Saturday
12,1907826.576401876
588,8658524.633935754
2,13, 1,13, 0, 4, 0.00,60.00,Saturday
12,2018364.1115823149
588,8444085.43400177
2,13, 1,13, 0, 5, 0.00,60.00,Saturday
12,1942881.6273176228
588,8379877.223266111
2,13, 1,13, 0, 6, 0.00,60.00,Saturday
12,18311171.085015138
588,9481153.085416498
2,13, 1,13, 0, 7, 0.00,60.00,Saturday
12,2379940.3962066818
588,8979536.092391534
2,13, 1,13, 0, 8, 0.00,60.00,Saturday
12,3529083.2890278205
588,7931352.453372542
2,13, 1,13, 0, 9, 0.00,60.00,Saturday
12,3261567.5833962948
588,5317552.82130473
2,13, 1,13, 0,10, 0.00,60.00,Saturday
12,5577203.828441657
588,3536156.8138828908
2,13, 1,13, 0,11, 0.00,60.00,Saturday
12,2943032.3987020726
588,1980197.4803833275
2,13, 1,13, 0,12, 0.00,60.00,Saturday
12,5300471.9634622209
588,512688.5311963127
2,13, 1,13, 0,13, 0.00,60.00,Saturday
12,9831453.62601284
588,0.0
2,13, 1,13, 0,14, 0.00,60.00,Saturday
12,5287518.966762155
588,0.0
2,13, 1,13, 0,15, 0.00,60.00,Saturday
12,2982807.755287772
588,0.0
2,13, 1,13, 0,16, 0.00,60.00,Saturday
12,4410980.608385485
588,0.0
2,13, 1,13, 0,17, 0.00,60.00,Saturday
12,3773338.427081233
588,0.0
2,13, 1,13, 0,18, 0.00,60.00,Saturday
12,6225386.9956867829
588,0.0
2,13, 1,13, 0,19, 0.00,60.00,Saturday
12,11124100.000937444
588,81136.18032324857
2,13, 1,13, 0,20, 0.00,60.00,Saturday
12,6297182.983208016
588,116887.01538475065
2,13, 1,13, 0,21, 0.00,60.00,Saturday
12,8363236.236530739
588,632820.2595735077
2,13, 1,13, 0,22, 0.00,60.00,Saturday
12,24778817.289068074
588,2121485.7864415214
2,13, 1,13, 0,23, 0.00,60.00,Saturday
12,2899338.3330089927
588,3291622.5936461167
2,13, 1,13, 0,24, 0.00,60.00,Saturday
12,4196354.323244883
588,3919122.845128105
2,14, 1,14, 0, 1, 0.00,60.00,Sunday
12,2236085.3425844807
588,3949654.606429589
2,14, 1,14, 0, 2, 0.00,60.00,Sunday
12,2070435.9386097368
588,3603846.579105779
2,14, 1,14, 0, 3, 0.00,60.00,Sunday
12,2000703.9765911224
588,4118022.7960156139
2,14, 1,14, 0, 4, 0.00,60.00,Sunday
12,4611845.381233691
588,4586353.530698788
2,14, 1,14, 0, 5, 0.00,60.00,Sunday
12,13006044.138152104
588,5527295.594579795
2,14, 1,14, 0, 6, 0.00,60.00,Sunday
12,2167245.8345267979
588,5147050.575430317
2,14, 1,14, 0, 7, 0.00,60.00,Sunday
12,7497313.962370887
588,5659112.2181267379
2,14, 1,14, 0, 8, 0.00,60.00,Sunday
12,4351103.559310465
588,5309201.952072239
2,14, 1,14, 0, 9, 0.00,60.00,Sunday
12,3160010.274151058
588,4232343.122193372
2,14, 1,14, 0,10, 0.00,60.00,Sunday
12,6279776.049991612
588,3113917.8015384154
2,14, 1,14, 0,11, 0.00,60.00,Sunday
12,3313779.516276741
588,1844423.7949742566
2,14, 1,14, 0,12, 0.00,60.00,Sunday
12,2938629.0729144
588,0.0
2,14, 1,14, 0,13, 0.00,60.00,Sunday
12,4262087.2079361
588,0.0
2,14, 1,14, 0,14, 0.00,60.00,Sunday
12,2837270.493604314
588,0.0
2,14, 1,14, 0,15, 0.00,60.00,Sunday
12,2978026.541765814
588,0.0
2,14, 1,14, 0,16, 0.00,60.00,Sunday
12,3062619.1160043098
588,379210.4092093876
2,14, 1,14, 0,17, 0.00,60.00,Sunday
12,9065103.420162658
588,1264737.5281280848
2,14, 1,14, 0,18, 0.00,60.00,Sunday
12,7906690.70132782
588,1148148.9652931302
2,14, 1,14, 0,19, 0.00,60.00,Sunday
12,5252713.26223165
588,1488202.0357057222
2,14, 1,14, 0,20, 0.00,60.00,Sunday
12,5377290.857644177
588,2103438.9350488365
2,14, 1,14, 0,21, 0.00,60.00,Sunday
12,5175438.47416381
588,3205771.4780870976
2,14, 1,14, 0,22, 0.00,60.00,Sunday
12,5967899.28718308
588,4072429.761928446
2,14, 1,14, 0,23, 0.00,60.00,Sunday
12,4032499.6051980166
588,4724403.723944844
2,14, 1,14, 0,24, 0.00,60.00,Sunday
12,4276776.780326382
588,6081613.4618286299
2,15, 1,15, 0, 1, 0.00,60.00,Monday
12,2286350.057718507
588,6730576.447229901
2,15, 1,15, 0, 2, 0.00,60.00,Monday
12,2144263.5500404096
588,7477568.163104936
2,15, 1,15, 0, 3, 0.00,60.00,Monday
12,2073343.4335055729
588,7929402.12478769
2,15, 1,15, 0, 4, 0.00,60.00,Monday
12,2022864.3703279133
588,8680213.206505627
2,15, 1,15, 0, 5, 0.00,60.00,Monday
12,1957144.4114255312
588,9128242.95765814
2,15, 1,15, 0, 6, 0.00,60.00,Monday
12,2257517.6548864378
588,9038293.121650178
2,15, 1,15, 0, 7, 0.00,60.00,Monday
12,3038175.045740059
588,9896278.307778718
2,15, 1,15, 0, 8, 0.00,60.00,Monday
12,4734020.447843505
588,9107482.652004688
2,15, 1,15, 0, 9, 0.00,60.00,Monday
12,9064180.011613369
588,5829392.2496291589
2,15, 1,15, 0,10, 0.00,60.00,Monday
12,2736065.0834820198
588,3376206.36121345
2,15, 1,15, 0,11, 0.00,60.00,Monday
12,2931573.044829667
588,1599067.5912692815
2,15, 1,15, 0,12, 0.00,60.00,Monday
12,4122358.105216411
588,0.0
2,15, 1,15, 0,13, 0.00,60.00,Monday
12,4013150.053188082
588,0.0
2,15, 1,15, 0,14, 0.00,60.00,Monday
12,2825005.483673061
588,0.0
2,15, 1,15, 0,15, 0.00,60.00,Monday
12,2978026.541765814
588,0.0
2,15, 1,15, 0,16, 0.00,60.00,Monday
12,5743416.623616546
588,0.0
2,15, 1,15, 0,17, 0.00,60.00,Monday
12,3685493.48419377
588,0.0
2,15, 1,15, 0,18, 0.00,60.00,Monday
12,6201103.8958576139
588,0.0
2,15, 1,15, 0,19, 0.00,60.00,Monday
12,12899107.779855952
588,0.0
2,15, 1,15, 0,20, 0.00,60.00,Monday
12,5951815.948378099
588,132678.1593566957
2,15, 1,15, 0,21, 0.00,60.00,Monday
12,5058127.429118614
588,1215046.726023985
2,15, 1,15, 0,22, 0.00,60.00,Monday
12,4735039.051988073
588,2056114.381354975
2,15, 1,15, 0,23, 0.00,60.00,Monday
12,5235917.489571187
588,3662188.94190307
2,15, 1,15, 0,24, 0.00,60.00,Monday
12,2988962.537795757
588,4266683.156079495
2,16, 1,16, 0, 1, 0.00,60.00,Tuesday
12,2317904.3039927526
588,4089480.4270479355
2,16, 1,16, 0, 2, 0.00,60.00,Tuesday
12,2088131.7409738734
588,4532342.168164749
2,16, 1,16, 0, 3, 0.00,60.00,Tuesday
12,1999981.6852719268
588,4080124.2995197407
2,16, 1,16, 0, 4, 0.00,60.00,Tuesday
12,1975641.5772741887
588,6202441.690347125
2,16, 1,16, 0, 5, 0.00,60.00,Tuesday
12,1926487.0309163542
588,7519655.678645421
2,16, 1,16, 0, 6, 0.00,60.00,Tuesday
12,2236393.225589673
588,7929898.089889151
2,16, 1,16, 0, 7, 0.00,60.00,Tuesday
12,3004221.520021405
588,8114742.8784125749
2,16, 1,16, 0, 8, 0.00,60.00,Tuesday
12,4734477.876017417
588,7702647.225218728
2,16, 1,16, 0, 9, 0.00,60.00,Tuesday
12,3220118.948858134
588,7449334.217382505
2,16, 1,16, 0,10, 0.00,60.00,Tuesday
12,4377468.891862438