Program Version,EnergyPlus, Version 9.2.0-921312fa1d, YMD=2019.10.18 18:59
1,5,Environment Title[],Latitude[deg],Longitude[deg],Time Zone[],Elevation[m]
2,8,Day of Simulation[],Month[],Day of Month[],DST Indicator[1=yes 0=no],Hour[],StartMinute[],EndMinute[],DayType
3,5,Cumulative Day of Simulation[],Month[],Day of Month[],DST Indicator[1=yes 0=no],DayType  ! When Daily Report Variables Requested
4,2,Cumulative Days of Simulation[],Month[]  ! When Monthly Report Variables Requested
5,1,Cumulative Days of Simulation[] ! When Run Period Report Variables Requested
6,1,Calendar Year of Simulation[] ! When Annual Report Variables Requested
276,11,EMS,central ac and furnace supply fan cool disaggregate [J] !RunPeriod [Value,Min,Month,Day,Hour,Minute,Max,Month,Day,Hour,Minute]
277,9,EMS,central ac and furnace supply fan cool disaggregate [J] !Monthly [Value,Min,Day,Hour,Minute,Max,Day,Hour,Minute]
278,11,EMS,central ac and furnace supply fan heat disaggregate [J] !RunPeriod [Value,Min,Month,Day,Hour,Minute,Max,Month,Day,Hour,Minute]
279,9,EMS,central ac and furnace supply fan heat disaggregate [J] !Monthly [Value,Min,Day,Hour,Minute,Max,Day,Hour,Minute]
280,11,EMS,water heater EC adjustment [J] !RunPeriod [Value,Min,Month,Day,Hour,Minute,Max,Month,Day,Hour,Minute]
281,1,CENTRAL AC AND FURNACE AIRLOOP RET AIR ZONE,Zone Mean Air Temperature [C] !Hourly
282,1,LIVING,Zone Mean Air Temperature [C] !Hourly
284,1,UNVENTED ATTIC,Zone Mean Air Temperature [C] !Hourly
586,11,FURNACE HTG COIL,Heating Coil Gas Energy [J] !RunPeriod [Value,Min,Month,Day,Hour,Minute,Max,Month,Day,Hour,Minute]
650,11,CENTRAL AC CLG COIL,Cooling Coil Electric Energy [J] !RunPeriod [Value,Min,Month,Day,Hour,Minute,Max,Month,Day,Hour,Minute]
877,11,WATER USE CONNECTIONS 1,Water Use Connections Plant Hot Water Energy [J] !RunPeriod [Value,Min,Month,Day,Hour,Minute,Max,Month,Day,Hour,Minute]
914,11,WATER HEATER,Water Heater Heat Loss Energy [J] !RunPeriod [Value,Min,Month,Day,Hour,Minute,Max,Month,Day,Hour,Minute]
929,11,WATER HEATER,Water Heater Electric Energy [J] !RunPeriod [Value,Min,Month,Day,Hour,Minute,Max,Month,Day,Hour,Minute]
967,11,WATER HEATER,Water Heater Off Cycle Parasitic Electric Energy [J] !RunPeriod [Value,Min,Month,Day,Hour,Minute,Max,Month,Day,Hour,Minute]
969,11,WATER HEATER,Water Heater On Cycle Parasitic Electric Energy [J] !RunPeriod [Value,Min,Month,Day,Hour,Minute,Max,Month,Day,Hour,Minute]
1132,11,CENTRAL AC CLG COIL,Cooling Coil Crankcase Heater Electric Energy [J] !RunPeriod [Value,Min,Month,Day,Hour,Minute,Max,Month,Day,Hour,Minute]
End of Data Dictionary
1,RUN PERIOD 1,  39.83,-104.65,  -7.00,1650.00
2,1, 1, 1, 0, 1, 0.00,60.00,Monday
281,23.000000000000005
282,20.477589459616007
284,-7.713100034899313
2,1, 1, 1, 0, 2, 0.00,60.00,Monday
281,23.000000000000005
282,20.13328933297886
284,-10.279106699544422
2,1, 1, 1, 0, 3, 0.00,60.00,Monday
281,22.997423399679677
282,20.00067318895644
284,-12.351375495075068
2,1, 1, 1, 0, 4, 0.00,60.00,Monday
281,22.986836357762664
282,20.00066037754165
284,-13.800182967593422
2,1, 1, 1, 0, 5, 0.00,60.00,Monday
281,22.969497575148769
282,20.000143211720294
284,-14.64837615509726
2,1, 1, 1, 0, 6, 0.00,60.00,Monday
281,22.94934937192046
282,20.000002484086758
284,-14.972662697974688
2,1, 1, 1, 0, 7, 0.00,60.00,Monday
281,22.928578471686128
282,20.000000044246634
284,-14.926569321708538
2,1, 1, 1, 0, 8, 0.00,60.00,Monday
281,22.9086779054869
282,20.000017078474344
284,-14.113775013412442
2,1, 1, 1, 0, 9, 0.00,60.00,Monday
281,22.890552110272723
282,20.000012324778696
284,-12.235841584815728
2,1, 1, 1, 0,10, 0.00,60.00,Monday
281,22.879288559933074
282,20.00000383858396
284,-9.523447097116618
2,1, 1, 1, 0,11, 0.00,60.00,Monday
281,22.87697673588974
282,20.00000000159447
284,-6.563496470959311
2,1, 1, 1, 0,12, 0.00,60.00,Monday
281,22.87697678361455
282,20.05566817710312
284,-3.537247428481838
2,1, 1, 1, 0,13, 0.00,60.00,Monday
281,22.876976818398139
282,20.000033263543693
284,-0.3311468470911464
2,1, 1, 1, 0,14, 0.00,60.00,Monday
281,22.873408181711885
282,20.000005332229145
284,1.5925071781015353
2,1, 1, 1, 0,15, 0.00,60.00,Monday
281,22.869419033876178
282,20.000002254048245
284,2.6761175941588117
2,1, 1, 1, 0,16, 0.00,60.00,Monday
281,22.864538570406329
282,20.000000187308843
284,2.866120531150963
2,1, 1, 1, 0,17, 0.00,60.00,Monday
281,22.85605545465612
282,20.000000001947446
284,1.694359042526035
2,1, 1, 1, 0,18, 0.00,60.00,Monday
281,22.841367176943654
282,20.000000745893027
284,0.14996567935932543
2,1, 1, 1, 0,19, 0.00,60.00,Monday
281,22.82032886221984
282,20.000018960899586
284,-1.2264498988382553
2,1, 1, 1, 0,20, 0.00,60.00,Monday
281,22.79734674225929
282,20.000056093019777
284,-2.5640850499162135
2,1, 1, 1, 0,21, 0.00,60.00,Monday
281,22.77462209818033
282,20.000044543949149
284,-3.9156308677392945
2,1, 1, 1, 0,22, 0.00,60.00,Monday
281,22.7505063876349
282,20.00002501496016
284,-5.057084930012306
2,1, 1, 1, 0,23, 0.00,60.00,Monday
281,22.723234460764677
282,20.000022459415765
284,-5.726155632980527
2,1, 1, 1, 0,24, 0.00,60.00,Monday
281,22.687940929206304
282,20.00001472922851
284,-5.669225402296123
2,2, 1, 2, 0, 1, 0.00,60.00,Tuesday
281,22.64789809546904
282,20.000000717751936
284,-5.200292547914581
2,2, 1, 2, 0, 2, 0.00,60.00,Tuesday
281,22.607810485390745
282,20.000000033149275
284,-5.044968431281254
2,2, 1, 2, 0, 3, 0.00,60.00,Tuesday
281,22.568204448005639
282,20.000000001488915
284,-5.045506101598995
2,2, 1, 2, 0, 4, 0.00,60.00,Tuesday
281,22.526431140062319
282,20.000000000071123
284,-5.270691003842382
2,2, 1, 2, 0, 5, 0.00,60.00,Tuesday
281,22.487473816947188
282,20.00000000000306
284,-5.613936672479485
2,2, 1, 2, 0, 6, 0.00,60.00,Tuesday
281,22.449845804083514
282,20.000000000000108
284,-6.077015548969747
2,2, 1, 2, 0, 7, 0.00,60.00,Tuesday
281,22.414830784878395
282,19.999999999999969
284,-6.2100170100852909
2,2, 1, 2, 0, 8, 0.00,60.00,Tuesday
281,22.384156181895894
282,20.00000000000003
284,-6.185376321220209
2,2, 1, 2, 0, 9, 0.00,60.00,Tuesday
281,22.355937594921639
282,20.00000000000002
284,-5.395625219858828
2,2, 1, 2, 0,10, 0.00,60.00,Tuesday
281,22.33384800413465
282,20.000000000000069
284,-3.419281042679222
2,2, 1, 2, 0,11, 0.00,60.00,Tuesday
281,22.31991190974649
282,20.000000000000026
284,-1.0184273807901776
2,2, 1, 2, 0,12, 0.00,60.00,Tuesday
281,22.31237198975004
282,20.000000000000019
284,1.6449185379913354
2,2, 1, 2, 0,13, 0.00,60.00,Tuesday
281,22.307550199700406
282,20.000000000000019
284,4.242082471662307
2,2, 1, 2, 0,14, 0.00,60.00,Tuesday
281,22.303140355613338
282,20.00000000000001
284,6.716347804965952
2,2, 1, 2, 0,15, 0.00,60.00,Tuesday
281,22.300035188716469
282,19.99999999999999
284,8.541966579740962
2,2, 1, 2, 0,16, 0.00,60.00,Tuesday
281,22.29528917160853
282,20.000000000000005
284,8.74826118700017
2,2, 1, 2, 0,17, 0.00,60.00,Tuesday
281,22.289058127254657
282,20.000002331132064
284,7.666003924759685
2,2, 1, 2, 0,18, 0.00,60.00,Tuesday
281,22.28150956670354
282,20.000002900653614
284,5.967838679329467
2,2, 1, 2, 0,19, 0.00,60.00,Tuesday
281,22.27075227053843
282,20.00000808091658
284,4.33519087829057
2,2, 1, 2, 0,20, 0.00,60.00,Tuesday
281,22.257334205827058
282,20.000016793090894
284,2.6796672827816407
2,2, 1, 2, 0,21, 0.00,60.00,Tuesday
281,22.240442778063476
282,20.000024741255247
284,1.1272263739201336
2,2, 1, 2, 0,22, 0.00,60.00,Tuesday
281,22.22302209750351
282,20.000019900678404
284,-0.15890903942530908
2,2, 1, 2, 0,23, 0.00,60.00,Tuesday
281,22.206251183387736
282,20.000014701976505
284,-1.4156454013205127
2,2, 1, 2, 0,24, 0.00,60.00,Tuesday
281,22.186412300949756
282,20.00001412592464
284,-2.1660582494482485
2,3, 1, 3, 0, 1, 0.00,60.00,Wednesday
281,22.163300173535434
282,20.00003183908916
284,-2.383329272577651
2,3, 1, 3, 0, 2, 0.00,60.00,Wednesday
281,22.137401816052944
282,20.000025229682128
284,-2.369429325529408
2,3, 1, 3, 0, 3, 0.00,60.00,Wednesday
281,22.10954787172037
282,20.00000831528297
284,-2.3373603800099715
2,3, 1, 3, 0, 4, 0.00,60.00,Wednesday
281,22.079604794414626
282,20.000000328068074
284,-2.4228277161095437
2,3, 1, 3, 0, 5, 0.00,60.00,Wednesday
281,22.047940204449014
282,20.00000001351934
284,-2.505156594398623
2,3, 1, 3, 0, 6, 0.00,60.00,Wednesday
281,22.015508589769845
282,20.00000000056543
284,-2.3737749968153878
2,3, 1, 3, 0, 7, 0.00,60.00,Wednesday
281,21.985120088365059
282,20.000000000021815
284,-2.13924407398375
2,3, 1, 3, 0, 8, 0.00,60.00,Wednesday
281,21.95600363403811
282,20.000000000000897
284,-1.8601574497807099
2,3, 1, 3, 0, 9, 0.00,60.00,Wednesday
281,21.932095798128768
282,20.000000000000076
284,-0.8399007296254316
2,3, 1, 3, 0,10, 0.00,60.00,Wednesday
281,21.911505026684155
282,20.000000000000033
284,1.0911028466436943
2,3, 1, 3, 0,11, 0.00,60.00,Wednesday
281,21.89569947118351
282,20.000020623957299
284,2.787355848037169
2,3, 1, 3, 0,12, 0.00,60.00,Wednesday
281,21.882547308018144
282,20.000042590267854
284,3.933291739932613
2,3, 1, 3, 0,13, 0.00,60.00,Wednesday
281,21.86881896580446
282,20.000019883783943
284,4.835989327921605
2,3, 1, 3, 0,14, 0.00,60.00,Wednesday
281,21.852238755340449
282,20.000000587288697
284,5.20851047321587
2,3, 1, 3, 0,15, 0.00,60.00,Wednesday
281,21.836535809864743
282,20.000000016099528
284,4.923026281414383
2,3, 1, 3, 0,16, 0.00,60.00,Wednesday
281,21.818617304777466
282,20.00000000054613
284,3.9116482208616629
2,3, 1, 3, 0,17, 0.00,60.00,Wednesday
281,21.797899378302163
282,20.00000000002145
284,2.3705229388738044
2,3, 1, 3, 0,18, 0.00,60.00,Wednesday
281,21.77464625372621
282,20.000000000000879
284,0.33147925466537839
2,3, 1, 3, 0,19, 0.00,60.00,Wednesday
281,21.750933217434527
282,20.000000000000033
284,-1.5241105459247615
2,3, 1, 3, 0,20, 0.00,60.00,Wednesday
281,21.726782754369095
282,19.999999999999969
284,-3.2321025793677777
2,3, 1, 3, 0,21, 0.00,60.00,Wednesday
281,21.698800969823194
282,20.000071523711154
284,-4.839465799393925
2,3, 1, 3, 0,22, 0.00,60.00,Wednesday
281,21.66646434598871
282,20.000051933491386
284,-6.165014316597369
2,3, 1, 3, 0,23, 0.00,60.00,Wednesday
281,21.62964414743328
282,20.000006788495584
284,-7.372027038453996
2,3, 1, 3, 0,24, 0.00,60.00,Wednesday
281,21.588330509770388
282,20.000000407134317
284,-8.297567947393026
2,4, 1, 4, 0, 1, 0.00,60.00,Thursday
281,21.543104983152156
282,20.000000026039659
284,-9.158108829886585
2,4, 1, 4, 0, 2, 0.00,60.00,Thursday
281,21.49266258415389
282,20.000000001855285
284,-10.216104457980725
2,4, 1, 4, 0, 3, 0.00,60.00,Thursday
281,21.43847669376167
282,20.000000000135523
284,-11.1790676645375
2,4, 1, 4, 0, 4, 0.00,60.00,Thursday
281,21.384055703816828
282,20.000000000009867
284,-11.880172858097354
2,4, 1, 4, 0, 5, 0.00,60.00,Thursday
281,21.330491797888596
282,20.000000000000836
284,-12.430272637562544
2,4, 1, 4, 0, 6, 0.00,60.00,Thursday
281,21.278250643391947
282,20.00000000000016
284,-12.853367375648375
2,4, 1, 4, 0, 7, 0.00,60.00,Thursday
281,21.228908290302216
282,20.000000000000175
284,-13.398562702204158
2,4, 1, 4, 0, 8, 0.00,60.00,Thursday
281,21.184247251865935
282,19.99999999999983
284,-13.654290580736106
2,4, 1, 4, 0, 9, 0.00,60.00,Thursday
281,21.14412960304921
282,19.99999999999984
284,-13.006392202989212
2,4, 1, 4, 0,10, 0.00,60.00,Thursday
281,21.110121520697054
282,20.000038750215155
284,-10.386335913755138
2,4, 1, 4, 0,11, 0.00,60.00,Thursday
281,21.084191884338794
282,20.000028257777627
284,-5.839461257373309
2,4, 1, 4, 0,12, 0.00,60.00,Thursday
281,21.063384933817497
282,20.000007725707765
284,-1.382124013591079
2,4, 1, 4, 0,13, 0.00,60.00,Thursday
281,21.04680196113596
282,20.000019324075656
284,2.6059796634627219
2,4, 1, 4, 0,14, 0.00,60.00,Thursday
281,21.033873993912417
282,20.00001725180519
284,5.404519618621422
2,4, 1, 4, 0,15, 0.00,60.00,Thursday
281,21.02337208345308
282,20.000012482792689
284,7.381949409066597
2,4, 1, 4, 0,16, 0.00,60.00,Thursday
281,21.012959974692916
282,20.000016893067479
284,8.34836762640228
2,4, 1, 4, 0,17, 0.00,60.00,Thursday
281,21.003239489137614
282,20.00001758721328
284,8.133388384130024
2,4, 1, 4, 0,18, 0.00,60.00,Thursday
281,20.99456378386543
282,20.000018947120258
284,7.043154391370364
2,4, 1, 4, 0,19, 0.00,60.00,Thursday
281,20.986352725204467
282,20.000025524490306
284,6.023967378784759
2,4, 1, 4, 0,20, 0.00,60.00,Thursday
281,20.978690060505885
282,20.000028253631958
284,5.33428774572466
2,4, 1, 4, 0,21, 0.00,60.00,Thursday
281,20.970836379628879
282,20.00003420803611
284,4.85601700911045
2,4, 1, 4, 0,22, 0.00,60.00,Thursday
281,20.962634458944508
282,20.000028236613269
284,4.371104328641696
2,4, 1, 4, 0,23, 0.00,60.00,Thursday
281,20.953677666829436
282,20.000025331817179
284,3.798024390526178
2,4, 1, 4, 0,24, 0.00,60.00,Thursday
281,20.944665506863804
282,20.000024531456423
284,4.180342188373729
2,5, 1, 5, 0, 1, 0.00,60.00,Friday
281,20.934476583045727
282,20.000026182700766
284,4.297687772348606
2,5, 1, 5, 0, 2, 0.00,60.00,Friday
281,20.924596483343295
282,20.000018778751767
284,4.791097013560768
2,5, 1, 5, 0, 3, 0.00,60.00,Friday
281,20.915682110777664
282,20.000021267882674
284,5.781490166149513
2,5, 1, 5, 0, 4, 0.00,60.00,Friday
281,20.906900518576415
282,20.000025657538914
284,6.379964578097949
2,5, 1, 5, 0, 5, 0.00,60.00,Friday
281,20.898377194632038
282,20.000026515420559
284,6.300798246507712
2,5, 1, 5, 0, 6, 0.00,60.00,Friday
281,20.89014306128206
282,20.000026490155564
284,6.147891757004668
2,5, 1, 5, 0, 7, 0.00,60.00,Friday
281,20.880232790895108
282,20.000037490402648
284,5.595998471308842
2,5, 1, 5, 0, 8, 0.00,60.00,Friday
281,20.87196486832577
282,20.0000436447139
284,5.188227630449429
2,5, 1, 5, 0, 9, 0.00,60.00,Friday
281,20.865671634023867
282,20.000039754512938
284,5.348083503373046
2,5, 1, 5, 0,10, 0.00,60.00,Friday
281,20.861257199439174
282,20.00001507935238
284,6.549955974559641
2,5, 1, 5, 0,11, 0.00,60.00,Friday
281,20.857064205792747
282,20.000010226659954
284,8.167038916110493
2,5, 1, 5, 0,12, 0.00,60.00,Friday
281,20.85506922927495
282,20.000008473866396
284,9.966097022315332
2,5, 1, 5, 0,13, 0.00,60.00,Friday
281,20.85485060168961
282,20.000000001424806
284,11.164595356071548
2,5, 1, 5, 0,14, 0.00,60.00,Friday
281,20.85485062050187
282,20.000000000000477
284,11.503881663343865
2,5, 1, 5, 0,15, 0.00,60.00,Friday
281,20.85412673532331
282,20.000020432226056
284,10.986819835455544
2,5, 1, 5, 0,16, 0.00,60.00,Friday
281,20.85243791144298
282,20.00002740324325
284,9.699097500886154
2,5, 1, 5, 0,17, 0.00,60.00,Friday
281,20.84912288260182
282,20.000021316919577
284,8.31303285202289
2,5, 1, 5, 0,18, 0.00,60.00,Friday
281,20.84496053886001
282,20.000011033103623
284,6.899255778415925
2,5, 1, 5, 0,19, 0.00,60.00,Friday
281,20.84005334853722
282,20.000012633836805
284,5.564530901351928
2,5, 1, 5, 0,20, 0.00,60.00,Friday
281,20.834266948524797
282,20.000012869680309
284,4.430184796124082
2,5, 1, 5, 0,21, 0.00,60.00,Friday
281,20.82701496037879
282,20.000012996749417
284,3.3945124134855488
2,5, 1, 5, 0,22, 0.00,60.00,Friday
281,20.818369108575067
282,20.00001269061475
284,2.2752737039667956
2,5, 1, 5, 0,23, 0.00,60.00,Friday
281,20.808710987201168
282,20.000015069947126
284,1.1953520176256503
2,5, 1, 5, 0,24, 0.00,60.00,Friday
281,20.79749692133577
282,20.00001664825857
284,0.4264133995228716
2,6, 1, 6, 0, 1, 0.00,60.00,Saturday
281,20.784566995284267
282,20.000009741040459
284,0.1394093851569674
2,6, 1, 6, 0, 2, 0.00,60.00,Saturday
281,20.770852401444125
282,20.000000350612689
284,0.22982585330048597
2,6, 1, 6, 0, 3, 0.00,60.00,Saturday
281,20.756991484867489
282,20.000001504361465
284,0.28543725593015725
2,6, 1, 6, 0, 4, 0.00,60.00,Saturday
281,20.742559974546258
282,20.00000005819894
284,0.15323588665668914
2,6, 1, 6, 0, 5, 0.00,60.00,Saturday
281,20.727395932048439
282,20.00000000231586
284,-0.4420727221836463
2,6, 1, 6, 0, 6, 0.00,60.00,Saturday
281,20.71099584547765
282,20.0000000001022
284,-1.0973987868309879
2,6, 1, 6, 0, 7, 0.00,60.00,Saturday
281,20.694063623602756
282,20.000063062643897
284,-1.3243199852471015
2,6, 1, 6, 0, 8, 0.00,60.00,Saturday
281,20.677725565514494
282,20.000043940907245
284,-1.370818940062686
2,6, 1, 6, 0, 9, 0.00,60.00,Saturday
281,20.662185174422516
282,20.000001668483546
284,-1.1841446349398617
2,6, 1, 6, 0,10, 0.00,60.00,Saturday
281,20.648185585403956
282,20.000000060517498
284,-0.5432055023976243
2,6, 1, 6, 0,11, 0.00,60.00,Saturday
281,20.6360556067476
282,20.000000001965295
284,-0.1647318320991609
2,6, 1, 6, 0,12, 0.00,60.00,Saturday
281,20.62600215955668
282,20.00000000005167
284,0.1995864558538174
2,6, 1, 6, 0,13, 0.00,60.00,Saturday
281,20.616841386923466
282,20.000000000001493
284,0.864459135325315
2,6, 1, 6, 0,14, 0.00,60.00,Saturday
281,20.60728800153931
282,20.000018903727903
284,1.3381194272596926
2,6, 1, 6, 0,15, 0.00,60.00,Saturday
281,20.597494202327526
282,20.000013009228164
284,1.495500508927573
2,6, 1, 6, 0,16, 0.00,60.00,Saturday
281,20.587509878451063
282,20.00000043807661
284,1.3319653661755707
2,6, 1, 6, 0,17, 0.00,60.00,Saturday
281,20.576189280511149
282,20.000000018134317
284,0.762918855762818
2,6, 1, 6, 0,18, 0.00,60.00,Saturday
281,20.563825413865727
282,20.000000000720929
284,-0.04498607185705385
2,6, 1, 6, 0,19, 0.00,60.00,Saturday
281,20.55147469290438
282,20.0000000000288
284,-1.1738935276443037
2,6, 1, 6, 0,20, 0.00,60.00,Saturday
281,20.53783372107512
282,20.00004079023391
284,-2.1543273887350447
2,6, 1, 6, 0,21, 0.00,60.00,Saturday
281,20.523051815152738
282,20.00004226088259
284,-3.218183049081105
2,6, 1, 6, 0,22, 0.00,60.00,Saturday
281,20.506999052281168
282,20.000056507055136
284,-4.334602020446745
2,6, 1, 6, 0,23, 0.00,60.00,Saturday
281,20.48865402913766
282,20.000165503940598
284,-5.05201563728964
2,6, 1, 6, 0,24, 0.00,60.00,Saturday
281,20.46870669733039
282,20.000115576093898
284,-5.626034931870123
2,7, 1, 7, 0, 1, 0.00,60.00,Sunday
281,20.446676611199785
282,20.000017771893949
284,-6.055866528819236
2,7, 1, 7, 0, 2, 0.00,60.00,Sunday
281,20.423687556549699
282,20.00000105048336
284,-6.307805115531369
2,7, 1, 7, 0, 3, 0.00,60.00,Sunday
281,20.400266051515915
282,20.00000006819314
284,-6.785084918365917
2,7, 1, 7, 0, 4, 0.00,60.00,Sunday
281,20.37455406665197
282,20.00000000468892
284,-7.508267569695496
2,7, 1, 7, 0, 5, 0.00,60.00,Sunday
281,20.34670188082818
282,20.000000000352047
284,-8.509620258085953
2,7, 1, 7, 0, 6, 0.00,60.00,Sunday
281,20.316680399969664
282,20.000024394180696
284,-9.139365612434535
2,7, 1, 7, 0, 7, 0.00,60.00,Sunday
281,20.287574225758303
282,20.00000175445155
284,-9.56056034725456
2,7, 1, 7, 0, 8, 0.00,60.00,Sunday
281,20.260405894847417
282,20.000000092718979
284,-8.483988293150285
2,7, 1, 7, 0, 9, 0.00,60.00,Sunday
281,20.24104108005375
282,20.000000004532386
284,-6.231282554440832
2,7, 1, 7, 0,10, 0.00,60.00,Sunday
281,20.224695323558014
282,20.000000000207217
284,-3.6609801360149039
2,7, 1, 7, 0,11, 0.00,60.00,Sunday
281,20.211035862967063
282,20.000000000008514
284,-1.2266675149399338
2,7, 1, 7, 0,12, 0.00,60.00,Sunday
281,20.20002762325592
282,20.000000000000428
284,1.1837199592523023
2,7, 1, 7, 0,13, 0.00,60.00,Sunday
281,20.191168896366486
282,19.999999999999976
284,3.3004836814228586
2,7, 1, 7, 0,14, 0.00,60.00,Sunday
281,20.183585602063944
282,20.000000000000094
284,4.820664157489391
2,7, 1, 7, 0,15, 0.00,60.00,Sunday
281,20.176689940150469
282,20.00000000000005
284,5.7327739395048609
2,7, 1, 7, 0,16, 0.00,60.00,Sunday
281,20.170239434828379
282,19.999999999999966
284,5.631912292212585
2,7, 1, 7, 0,17, 0.00,60.00,Sunday
281,20.163839362050653
282,19.999999999999987
284,5.213557629938372
2,7, 1, 7, 0,18, 0.00,60.00,Sunday
281,20.157607588640905
282,20.0000000000001
284,4.881259837373022
2,7, 1, 7, 0,19, 0.00,60.00,Sunday
281,20.152166923876153
282,20.00000000000003
284,4.52372929087578
2,7, 1, 7, 0,20, 0.00,60.00,Sunday
281,20.147202867341816
282,19.99999999999998
284,4.126772632182899
2,7, 1, 7, 0,21, 0.00,60.00,Sunday
281,20.141898238845945
282,19.999999999999959
284,3.533768439219315
2,7, 1, 7, 0,22, 0.00,60.00,Sunday
281,20.135649297990125
282,19.999999999999987
284,2.4091159234235968
2,7, 1, 7, 0,23, 0.00,60.00,Sunday
281,20.1283231502424
282,19.999999999999905
284,1.368151932833811
2,7, 1, 7, 0,24, 0.00,60.00,Sunday
281,20.120425132709536
282,20.000001524557097
284,1.074063676016455
2,8, 1, 8, 0, 1, 0.00,60.00,Monday
281,20.112727577985138
282,20.000002872453359
284,1.2010653745070197
2,8, 1, 8, 0, 2, 0.00,60.00,Monday
281,20.104703419739296
282,20.000000114675769
284,1.3073747903752185
2,8, 1, 8, 0, 3, 0.00,60.00,Monday
281,20.09618567109774
282,20.000000005054905
284,1.094719436398826
2,8, 1, 8, 0, 4, 0.00,60.00,Monday
281,20.08649790112657
282,20.000000000280349
284,0.6999366395998928
2,8, 1, 8, 0, 5, 0.00,60.00,Monday
281,20.074251264908715
282,20.00000000001602
284,0.21023071885841286
2,8, 1, 8, 0, 6, 0.00,60.00,Monday
281,20.061730023091998
282,20.000000000000715
284,-0.5832798914789108
2,8, 1, 8, 0, 7, 0.00,60.00,Monday
281,20.050111687819557
282,20.000000000000076
284,-1.538128659706738
2,8, 1, 8, 0, 8, 0.00,60.00,Monday
281,20.037921667790937
282,19.99999999999998
284,-2.140686414362699
2,8, 1, 8, 0, 9, 0.00,60.00,Monday
281,20.027290580037833
282,19.99999999999999
284,-1.525104799503488
2,8, 1, 8, 0,10, 0.00,60.00,Monday
281,20.019017506423738
282,19.999999999999948
284,-0.03195197972533381
2,8, 1, 8, 0,11, 0.00,60.00,Monday
281,20.013295029040174
282,20.000000000000008
284,2.1027083732828828
2,8, 1, 8, 0,12, 0.00,60.00,Monday
281,20.008789719552948
282,19.999999999999959
284,4.21650540489955
2,8, 1, 8, 0,13, 0.00,60.00,Monday
281,20.005454989383126
282,20.000000000000005
284,6.072557058084177
2,8, 1, 8, 0,14, 0.00,60.00,Monday
281,20.003337910434227
282,20.000000000000005
284,7.329421372804545
2,8, 1, 8, 0,15, 0.00,60.00,Monday
281,20.00204566411735
282,20.000000000000008
284,7.527259465513178
2,8, 1, 8, 0,16, 0.00,60.00,Monday
281,20.00062783564925
282,20.00000000000001
284,6.602224625083066
2,8, 1, 8, 0,17, 0.00,60.00,Monday
281,19.999184911272008
282,20.00000000000004
284,5.3915835740262
2,8, 1, 8, 0,18, 0.00,60.00,Monday
281,19.996692659975318
282,20.000000000000065
284,3.986479159605293
2,8, 1, 8, 0,19, 0.00,60.00,Monday
281,19.992824213929884
282,20.00000298955828
284,2.540813499541867
2,8, 1, 8, 0,20, 0.00,60.00,Monday
281,19.98766305507961
282,20.000057618178177
284,1.3727422287019094
2,8, 1, 8, 0,21, 0.00,60.00,Monday
281,19.981492641226056
282,20.000051625058587
284,0.47674227063759669
2,8, 1, 8, 0,22, 0.00,60.00,Monday
281,19.975502706296934
282,20.000036644797036
284,-0.26052719368817536
2,8, 1, 8, 0,23, 0.00,60.00,Monday
281,19.968345146384875
282,20.000028141204909
284,-0.7926043826227861
2,8, 1, 8, 0,24, 0.00,60.00,Monday
281,19.961340685886829
282,20.000034322165396
284,-1.2821818511030159
2,9, 1, 9, 0, 1, 0.00,60.00,Tuesday
281,19.952747430993719
282,20.000030815297717
284,-1.7920148258694273
2,9, 1, 9, 0, 2, 0.00,60.00,Tuesday
281,19.942898155859255
282,20.00002632191775
284,-2.259779931174123
2,9, 1, 9, 0, 3, 0.00,60.00,Tuesday
281,19.932685952514974
282,20.000022196322797
284,-2.6222778998543996
2,9, 1, 9, 0, 4, 0.00,60.00,Tuesday
281,19.922164773488256
282,20.000019740672746
284,-2.8802482214499669
2,9, 1, 9, 0, 5, 0.00,60.00,Tuesday
281,19.91140708978414
282,20.000018475441743
284,-3.213974987636995
2,9, 1, 9, 0, 6, 0.00,60.00,Tuesday
281,19.900622854690285
282,20.000019227408524
284,-3.4839083418324479
2,9, 1, 9, 0, 7, 0.00,60.00,Tuesday
281,19.889715288139898
282,20.000012724929314
284,-4.392047844957518
2,9, 1, 9, 0, 8, 0.00,60.00,Tuesday
281,19.878510052412666
282,20.000014840070859
284,-4.67510046441092
2,9, 1, 9, 0, 9, 0.00,60.00,Tuesday
281,19.868976734188054
282,20.00001554600558
284,-3.9593681007862728
2,9, 1, 9, 0,10, 0.00,60.00,Tuesday
281,19.86132389173987
282,20.00000109584659
284,-2.527588603985148
2,9, 1, 9, 0,11, 0.00,60.00,Tuesday
281,19.85521173484147
282,20.000000034281233
284,-0.7846337518005819
2,9, 1, 9, 0,12, 0.00,60.00,Tuesday
281,19.850389747845609
282,20.00000000096346
284,0.7440789959308916
2,9, 1, 9, 0,13, 0.00,60.00,Tuesday
281,19.846556875674204
282,20.000000000026899
284,1.9109175884572459
2,9, 1, 9, 0,14, 0.00,60.00,Tuesday
281,19.843061255043076
282,20.000000000000776
284,2.6081325266876109
2,9, 1, 9, 0,15, 0.00,60.00,Tuesday
281,19.83990141862188
282,20.000000000000079
284,2.915932705017961
2,9, 1, 9, 0,16, 0.00,60.00,Tuesday
281,19.837347200261108
282,19.99999999999996
284,2.951978793314452
2,9, 1, 9, 0,17, 0.00,60.00,Tuesday
281,19.834971774110387
282,19.99999999999998
284,2.5171515766616006
2,9, 1, 9, 0,18, 0.00,60.00,Tuesday
281,19.83205636832174
282,20.000000000000019
284,1.6932121806295298
2,9, 1, 9, 0,19, 0.00,60.00,Tuesday
281,19.828511891638738
282,20.000006470016208
284,0.7806035335648144
2,9, 1, 9, 0,20, 0.00,60.00,Tuesday
281,19.824385338676895
282,20.000024719993353
284,0.1574066884949393
2,9, 1, 9, 0,21, 0.00,60.00,Tuesday
281,19.82037139595423
282,20.000049740564763
284,-0.5150483705619047
2,9, 1, 9, 0,22, 0.00,60.00,Tuesday
281,19.815126640078466
282,20.00005100199649
284,-1.1159227555433816
2,9, 1, 9, 0,23, 0.00,60.00,Tuesday
281,19.80935233326527
282,20.000052487503038
284,-1.7239315440716646
2,9, 1, 9, 0,24, 0.00,60.00,Tuesday
281,19.80305605283356
282,20.00005631598282
284,-2.451231510342934
2,10, 1,10, 0, 1, 0.00,60.00,Wednesday
281,19.79480100377706
282,20.000076029651628
284,-3.0453382247384299
2,10, 1,10, 0, 2, 0.00,60.00,Wednesday
281,19.785955478431036
282,20.000060409693618
284,-3.6055896052353328
2,10, 1,10, 0, 3, 0.00,60.00,Wednesday
281,19.776410396047237
282,20.000028476732355
284,-4.11771094122035
2,10, 1,10, 0, 4, 0.00,60.00,Wednesday
281,19.767066874205427
282,20.00001459715902
284,-4.563317423535473
2,10, 1,10, 0, 5, 0.00,60.00,Wednesday
281,19.75660385803455
282,20.00000265541871
284,-4.894616987796719
2,10, 1,10, 0, 6, 0.00,60.00,Wednesday
281,19.745751428806345
282,20.000000157496879
284,-5.335590605268773
2,10, 1,10, 0, 7, 0.00,60.00,Wednesday
281,19.73430120498598
282,20.000000008706335
284,-5.644405002043279
2,10, 1,10, 0, 8, 0.00,60.00,Wednesday
281,19.723815409573715
282,20.000000000466636
284,-5.667185538430673
2,10, 1,10, 0, 9, 0.00,60.00,Wednesday
281,19.713260482442295
282,20.000000000021648
284,-4.941342716658214
2,10, 1,10, 0,10, 0.00,60.00,Wednesday
281,19.704949871113646
282,20.00000000000103
284,-3.469227888183925
2,10, 1,10, 0,11, 0.00,60.00,Wednesday
281,19.698194307719189
282,20.000016589754144
284,-1.5213843120616542
2,10, 1,10, 0,12, 0.00,60.00,Wednesday
281,19.693064447609346
282,20.00002423732735
284,0.4063169437981374
2,10, 1,10, 0,13, 0.00,60.00,Wednesday
281,19.69009263125969
282,20.000001335080357
284,1.8713585663814408
2,10, 1,10, 0,14, 0.00,60.00,Wednesday
281,19.68854484413142
282,20.000000020781039
284,2.7668532979494855
2,10, 1,10, 0,15, 0.00,60.00,Wednesday
281,19.68723679557588
282,20.000000000284439
284,2.7141915381022905
2,10, 1,10, 0,16, 0.00,60.00,Wednesday
281,19.686370809491558
282,20.000000000004463
284,2.4425830461743449
2,10, 1,10, 0,17, 0.00,60.00,Wednesday
281,19.685785730827264
282,20.00000000000017
284,2.0853506019538825
2,10, 1,10, 0,18, 0.00,60.00,Wednesday
281,19.68457761583088
282,20.0
284,1.1680910424117382
2,10, 1,10, 0,19, 0.00,60.00,Wednesday
281,19.682391697738173
282,19.999999999999994
284,0.06253225639032774
2,10, 1,10, 0,20, 0.00,60.00,Wednesday
281,19.679241475875647
282,19.999999999999987
284,-0.9796095198339705
2,10, 1,10, 0,21, 0.00,60.00,Wednesday
281,19.67589416851461
282,20.000051203211816
284,-1.7182544419333122
2,10, 1,10, 0,22, 0.00,60.00,Wednesday
281,19.672636723458127
282,20.000046043912048
284,-2.3296100668151524
2,10, 1,10, 0,23, 0.00,60.00,Wednesday
281,19.66783009769621
282,20.000014278877907
284,-3.038045597506673
2,10, 1,10, 0,24, 0.00,60.00,Wednesday
281,19.663048801302585
282,20.000004051866794
284,-3.67121626890673
2,11, 1,11, 0, 1, 0.00,60.00,Thursday
281,19.655407614444586
282,20.000000228430574
284,-4.098605932304958
2,11, 1,11, 0, 2, 0.00,60.00,Thursday
281,19.6477331974008
282,20.00000001334902
284,-4.629845244224629
2,11, 1,11, 0, 3, 0.00,60.00,Thursday
281,19.63897002866974
282,20.000000000754889
284,-5.1002585854294
2,11, 1,11, 0, 4, 0.00,60.00,Thursday
281,19.630740589872013
282,20.000000000044197
284,-5.361259166116518
2,11, 1,11, 0, 5, 0.00,60.00,Thursday
281,19.6219342331847
282,20.000000000002684
284,-5.288714326460506
2,11, 1,11, 0, 6, 0.00,60.00,Thursday
281,19.61262238891313
282,20.00000000000009
284,-5.012032939144106
2,11, 1,11, 0, 7, 0.00,60.00,Thursday
281,19.604187242002465
282,20.0
284,-4.762850216332496
2,11, 1,11, 0, 8, 0.00,60.00,Thursday
281,19.5964018484
282,20.000000000000069
284,-4.428541333479151
2,11, 1,11, 0, 9, 0.00,60.00,Thursday
281,19.58939514861604
282,19.999999999999976
284,-3.5827733656506646
2,11, 1,11, 0,10, 0.00,60.00,Thursday
281,19.58127370217172
282,20.000016057931693
284,-2.1091877357796746
2,11, 1,11, 0,11, 0.00,60.00,Thursday
281,19.57541509167965
282,20.000000451647276
284,-0.10715771661240851
2,11, 1,11, 0,12, 0.00,60.00,Thursday
281,19.572645239701655
282,20.000000010264207
284,2.084278984627415
2,11, 1,11, 0,13, 0.00,60.00,Thursday
281,19.570905473948288
282,20.000000000180945
284,4.591563942265087
2,11, 1,11, 0,14, 0.00,60.00,Thursday
281,19.570161946336567
282,20.000000000002815
284,7.0205937862767
2,11, 1,11, 0,15, 0.00,60.00,Thursday
281,19.570131865218703
282,20.000000000000076
284,8.731057012209986
2,11, 1,11, 0,16, 0.00,60.00,Thursday
281,19.570464316929667
282,19.999999999999987
284,9.475533158294587
2,11, 1,11, 0,17, 0.00,60.00,Thursday
281,19.57093317842524
282,19.99999999999999
284,9.253958069634658
2,11, 1,11, 0,18, 0.00,60.00,Thursday
281,19.570998723872579
282,20.000000000000033
284,7.85082825399974
2,11, 1,11, 0,19, 0.00,60.00,Thursday
281,19.570797551391214
282,20.000000000000008
284,6.767802800784962
2,11, 1,11, 0,20, 0.00,60.00,Thursday
281,19.571091693525966
282,20.00000000000004
284,5.907051551373587
2,11, 1,11, 0,21, 0.00,60.00,Thursday
281,19.571008295392834
282,20.000008052662645
284,5.097504800805681
2,11, 1,11, 0,22, 0.00,60.00,Thursday
281,19.57022805298782