Program Version,EnergyPlus, Version 9.2.0-921312fa1d, YMD=2019.10.24 09:57
1,5,Environment Title[],Latitude[deg],Longitude[deg],Time Zone[],Elevation[m]
2,8,Day of Simulation[],Month[],Day of Month[],DST Indicator[1=yes 0=no],Hour[],StartMinute[],EndMinute[],DayType
3,5,Cumulative Day of Simulation[],Month[],Day of Month[],DST Indicator[1=yes 0=no],DayType  ! When Daily Report Variables Requested
4,2,Cumulative Days of Simulation[],Month[]  ! When Monthly Report Variables Requested
5,1,Cumulative Days of Simulation[] ! When Run Period Report Variables Requested
6,1,Calendar Year of Simulation[] ! When Annual Report Variables Requested
276,11,EMS,central ac and furnace supply fan cool disaggregate [J] !RunPeriod [Value,Min,Month,Day,Hour,Minute,Max,Month,Day,Hour,Minute]
277,9,EMS,central ac and furnace supply fan cool disaggregate [J] !Monthly [Value,Min,Day,Hour,Minute,Max,Day,Hour,Minute]
278,11,EMS,central ac and furnace supply fan heat disaggregate [J] !RunPeriod [Value,Min,Month,Day,Hour,Minute,Max,Month,Day,Hour,Minute]
279,9,EMS,central ac and furnace supply fan heat disaggregate [J] !Monthly [Value,Min,Day,Hour,Minute,Max,Day,Hour,Minute]
280,11,EMS,water heater EC adjustment [J] !RunPeriod [Value,Min,Month,Day,Hour,Minute,Max,Month,Day,Hour,Minute]
281,1,CENTRAL AC AND FURNACE AIRLOOP RET AIR ZONE,Zone Mean Air Temperature [C] !Hourly
282,1,LIVING,Zone Mean Air Temperature [C] !Hourly
284,1,UNVENTED ATTIC,Zone Mean Air Temperature [C] !Hourly
586,11,FURNACE HTG COIL,Heating Coil Gas Energy [J] !RunPeriod [Value,Min,Month,Day,Hour,Minute,Max,Month,Day,Hour,Minute]
650,11,CENTRAL AC CLG COIL,Cooling Coil Electric Energy [J] !RunPeriod [Value,Min,Month,Day,Hour,Minute,Max,Month,Day,Hour,Minute]
877,11,WATER USE CONNECTIONS 1,Water Use Connections Plant Hot Water Energy [J] !RunPeriod [Value,Min,Month,Day,Hour,Minute,Max,Month,Day,Hour,Minute]
914,11,WATER HEATER,Water Heater Heat Loss Energy [J] !RunPeriod [Value,Min,Month,Day,Hour,Minute,Max,Month,Day,Hour,Minute]
929,11,WATER HEATER,Water Heater Electric Energy [J] !RunPeriod [Value,Min,Month,Day,Hour,Minute,Max,Month,Day,Hour,Minute]
967,11,WATER HEATER,Water Heater Off Cycle Parasitic Electric Energy [J] !RunPeriod [Value,Min,Month,Day,Hour,Minute,Max,Month,Day,Hour,Minute]
969,11,WATER HEATER,Water Heater On Cycle Parasitic Electric Energy [J] !RunPeriod [Value,Min,Month,Day,Hour,Minute,Max,Month,Day,Hour,Minute]
1132,11,CENTRAL AC CLG COIL,Cooling Coil Crankcase Heater Electric Energy [J] !RunPeriod [Value,Min,Month,Day,Hour,Minute,Max,Month,Day,Hour,Minute]
End of Data Dictionary
1,RUN PERIOD 1,  39.83,-104.65,  -7.00,1650.00
2,1, 1, 1, 0, 1, 0.00,60.00,Monday
281,22.59643283742735
282,20.004314797905704
284,-7.705228586123915
2,1, 1, 1, 0, 2, 0.00,60.00,Monday
281,22.576661985046934
282,20.000107601179964
284,-10.289655085084167
2,1, 1, 1, 0, 3, 0.00,60.00,Monday
281,22.547705132866996
282,20.000002622427226
284,-12.242820411561464
2,1, 1, 1, 0, 4, 0.00,60.00,Monday
281,22.511264013312546
282,20.00000007805957
284,-13.576822037659625
2,1, 1, 1, 0, 5, 0.00,60.00,Monday
281,22.469542255257485
282,20.00000000258047
284,-14.35105529863832
2,1, 1, 1, 0, 6, 0.00,60.00,Monday
281,22.42621616331341
282,20.00000000008695
284,-14.592070203077255
2,1, 1, 1, 0, 7, 0.00,60.00,Monday
281,22.383370892038383
282,20.000000000002946
284,-14.471622460414184
2,1, 1, 1, 0, 8, 0.00,60.00,Monday
281,22.34239919779033
282,20.00000320147233
284,-13.529038441187505
2,1, 1, 1, 0, 9, 0.00,60.00,Monday
281,22.304934447871444
282,20.00001285171661
284,-11.132652638626489
2,1, 1, 1, 0,10, 0.00,60.00,Monday
281,22.277325515522326
282,20.00000877953793
284,-6.469332525495969
2,1, 1, 1, 0,11, 0.00,60.00,Monday
281,22.261626336420354
282,20.00000413029321
284,-0.6579886378602567
2,1, 1, 1, 0,12, 0.00,60.00,Monday
281,22.252697512111316
282,20.000002895795047
284,4.573825194047016
2,1, 1, 1, 0,13, 0.00,60.00,Monday
281,22.244872744258527
282,20.00000302278176
284,7.617484063807284
2,1, 1, 1, 0,14, 0.00,60.00,Monday
281,22.236056213624605
282,20.000002738854467
284,9.072082018309807
2,1, 1, 1, 0,15, 0.00,60.00,Monday
281,22.22846224262578
282,20.000000028751744
284,9.53783699571279
2,1, 1, 1, 0,16, 0.00,60.00,Monday
281,22.221022725826619
282,20.000000000319625
284,8.774022598936176
2,1, 1, 1, 0,17, 0.00,60.00,Monday
281,22.21086271830945
282,20.0000000000051
284,6.492868593887168
2,1, 1, 1, 0,18, 0.00,60.00,Monday
281,22.19536161530758
282,20.000001166149308
284,3.8763356545649669
2,1, 1, 1, 0,19, 0.00,60.00,Monday
281,22.17397465077608
282,20.000019938630485
284,1.2134386846489856
2,1, 1, 1, 0,20, 0.00,60.00,Monday
281,22.1499805598887
282,20.000057816354166
284,-0.8153143460302811
2,1, 1, 1, 0,21, 0.00,60.00,Monday
281,22.12531117999852
282,20.00004412667567
284,-2.607334111017839
2,1, 1, 1, 0,22, 0.00,60.00,Monday
281,22.09866504917547
282,20.000022805889388
284,-4.063549246900498
2,1, 1, 1, 0,23, 0.00,60.00,Monday
281,22.068385417477907
282,20.000018620516216
284,-4.981729290440312
2,1, 1, 1, 0,24, 0.00,60.00,Monday
281,22.030769954034729
282,20.000011945699819
284,-5.144583792834883
2,2, 1, 2, 0, 1, 0.00,60.00,Tuesday
281,21.988331174146219
282,20.00000059717882
284,-4.839582744124088
2,2, 1, 2, 0, 2, 0.00,60.00,Tuesday
281,21.945291526759037
282,20.000000030034408
284,-4.758904816430122
2,2, 1, 2, 0, 3, 0.00,60.00,Tuesday
281,21.90242921547941
282,20.000000001527036
284,-4.8453584953286399
2,2, 1, 2, 0, 4, 0.00,60.00,Tuesday
281,21.857755992299429
282,20.00000000008348
284,-5.138692000949948
2,2, 1, 2, 0, 5, 0.00,60.00,Tuesday
281,21.81483037369009
282,20.000000000004325
284,-5.485946997329512
2,2, 1, 2, 0, 6, 0.00,60.00,Tuesday
281,21.773223153081458
282,20.000000000000168
284,-5.952984208538642
2,2, 1, 2, 0, 7, 0.00,60.00,Tuesday
281,21.733618348351887
282,20.000000000000094
284,-6.057927469483894
2,2, 1, 2, 0, 8, 0.00,60.00,Tuesday
281,21.698009245962888
282,20.000000000000069
284,-5.792379546539411
2,2, 1, 2, 0, 9, 0.00,60.00,Tuesday
281,21.66571056542381
282,20.000000000000033
284,-4.4161179267415229
2,2, 1, 2, 0,10, 0.00,60.00,Tuesday
281,21.64054680973916
282,20.000000000000087
284,-0.9511962885113596
2,2, 1, 2, 0,11, 0.00,60.00,Tuesday
281,21.62560244255911
282,20.000000000000019
284,4.0515991764115288
2,2, 1, 2, 0,12, 0.00,60.00,Tuesday
281,21.617911830838169
282,19.999999999999987
284,9.125955212923604
2,2, 1, 2, 0,13, 0.00,60.00,Tuesday
281,21.61353940375247
282,20.0
284,12.546140596981644
2,2, 1, 2, 0,14, 0.00,60.00,Tuesday
281,21.610202290528755
282,19.999999999999998
284,14.59793643674476
2,2, 1, 2, 0,15, 0.00,60.00,Tuesday
281,21.60854753488745
282,20.000000000000005
284,15.838495027015635
2,2, 1, 2, 0,16, 0.00,60.00,Tuesday
281,21.60597822739685
282,20.000000000000015
284,15.290428376793319
2,2, 1, 2, 0,17, 0.00,60.00,Tuesday
281,21.602183755594024
282,20.000001800491807
284,12.920277365474984
2,2, 1, 2, 0,18, 0.00,60.00,Tuesday
281,21.59717158549739
282,20.00000275160332
284,10.129161520156569
2,2, 1, 2, 0,19, 0.00,60.00,Tuesday
281,21.589478302040395
282,20.000008116935875
284,7.237930365092495
2,2, 1, 2, 0,20, 0.00,60.00,Tuesday
281,21.579337489279799
282,20.000017499707896
284,4.82541468023965
2,2, 1, 2, 0,21, 0.00,60.00,Tuesday
281,21.566093792994498
282,20.000026243811197
284,2.736148340263877
2,2, 1, 2, 0,22, 0.00,60.00,Tuesday
281,21.55172163123185
282,20.000021272748588
284,1.0345108857194155
2,2, 1, 2, 0,23, 0.00,60.00,Tuesday
281,21.537276683094864
282,20.000015782287613
284,-0.5110086342188048
2,2, 1, 2, 0,24, 0.00,60.00,Tuesday
281,21.520096068168287
282,20.000014854799308
284,-1.45533903076874
2,3, 1, 3, 0, 1, 0.00,60.00,Wednesday
281,21.499658994303834
282,20.00003363961856
284,-1.791489756222922
2,3, 1, 3, 0, 2, 0.00,60.00,Wednesday
281,21.47647841903643
282,20.00002620550888
284,-1.8328668997431768
2,3, 1, 3, 0, 3, 0.00,60.00,Wednesday
281,21.451234536615009
282,20.000008398192095
284,-1.8301679641188769
2,3, 1, 3, 0, 4, 0.00,60.00,Wednesday
281,21.42397743620001
282,20.000000363612373
284,-1.9376520415911463
2,3, 1, 3, 0, 5, 0.00,60.00,Wednesday
281,21.394963630376865
282,20.000000016485538
284,-2.0271739779305264
2,3, 1, 3, 0, 6, 0.00,60.00,Wednesday
281,21.365026333853615
282,20.000000000761934
284,-1.8502276302453882
2,3, 1, 3, 0, 7, 0.00,60.00,Wednesday
281,21.33637302491881
282,20.000000000033038
284,-1.6005503992900723
2,3, 1, 3, 0, 8, 0.00,60.00,Wednesday
281,21.308934728980778
282,20.00000000000141
284,-1.2989538291431484
2,3, 1, 3, 0, 9, 0.00,60.00,Wednesday
281,21.285682248691086
282,20.0000000000001
284,0.10884173386885447
2,3, 1, 3, 0,10, 0.00,60.00,Wednesday
281,21.2666528076139
282,20.00000000000008
284,2.654957346810469
2,3, 1, 3, 0,11, 0.00,60.00,Wednesday
281,21.25290834629115
282,20.000020797671515
284,6.521446618212115
2,3, 1, 3, 0,12, 0.00,60.00,Wednesday
281,21.243407114866789
282,20.000038307579776
284,10.068642086945744
2,3, 1, 3, 0,13, 0.00,60.00,Wednesday
281,21.23507757408524
282,20.000016993506678
284,11.865078016641338
2,3, 1, 3, 0,14, 0.00,60.00,Wednesday
281,21.225717776469329
282,20.000000412690203
284,12.240399815559986
2,3, 1, 3, 0,15, 0.00,60.00,Wednesday
281,21.217446049672807
282,20.000000008679156
284,11.58970290966007
2,3, 1, 3, 0,16, 0.00,60.00,Wednesday
281,21.20738239634593
282,20.000000000236306
284,9.444351783532826
2,3, 1, 3, 0,17, 0.00,60.00,Wednesday
281,21.19453066327175
282,20.000000000007814
284,6.373260199110592
2,3, 1, 3, 0,18, 0.00,60.00,Wednesday
281,21.179116557033866
282,20.000000000000296
284,3.1452641418474278
2,3, 1, 3, 0,19, 0.00,60.00,Wednesday
281,21.162353166939249
282,20.000000000000055
284,0.5374460336049473
2,3, 1, 3, 0,20, 0.00,60.00,Wednesday
281,21.144427030027044
282,19.99999999999999
284,-1.6889430259377852
2,3, 1, 3, 0,21, 0.00,60.00,Wednesday
281,21.123012186821044
282,20.00006972223699
284,-3.6923605609641054
2,3, 1, 3, 0,22, 0.00,60.00,Wednesday
281,21.097239241791934
282,20.000050825135653
284,-5.3227172749618349
2,3, 1, 3, 0,23, 0.00,60.00,Wednesday
281,21.06709436020953
282,20.000006708494796
284,-6.762480107688373
2,3, 1, 3, 0,24, 0.00,60.00,Wednesday
281,21.032415699971076
282,20.00000040936188
284,-7.850018501394437
2,4, 1, 4, 0, 1, 0.00,60.00,Thursday
281,20.993718333723327
282,20.00000002679946
284,-8.808302867151518
2,4, 1, 4, 0, 2, 0.00,60.00,Thursday
281,20.950278379228778
282,20.00000000195634
284,-9.937754519388968
2,4, 1, 4, 0, 3, 0.00,60.00,Thursday
281,20.902648223720758
282,20.00000000014744
284,-10.963487141094694
2,4, 1, 4, 0, 4, 0.00,60.00,Thursday
281,20.85384246101471
282,20.000000000010897
284,-11.692345812381888
2,4, 1, 4, 0, 5, 0.00,60.00,Thursday
281,20.805256311260444
282,20.000000000000676
284,-12.263301578102924
2,4, 1, 4, 0, 6, 0.00,60.00,Thursday
281,20.757243040017113
282,20.00000000000017
284,-12.700562393914997
2,4, 1, 4, 0, 7, 0.00,60.00,Thursday
281,20.711139597537746
282,20.000000000000186
284,-13.261865402254843
2,4, 1, 4, 0, 8, 0.00,60.00,Thursday
281,20.668571665707828
282,20.000000000000005
284,-13.125865480791154
2,4, 1, 4, 0, 9, 0.00,60.00,Thursday
281,20.63073493946439
282,19.999999999999827
284,-11.468716967671384
2,4, 1, 4, 0,10, 0.00,60.00,Thursday
281,20.598769014334008
282,20.00004159439236
284,-7.868203545309106
2,4, 1, 4, 0,11, 0.00,60.00,Thursday
281,20.575029796829285
282,20.00003012267296
284,-3.500900579454342
2,4, 1, 4, 0,12, 0.00,60.00,Thursday
281,20.556631381279514
282,20.000007804111389
284,0.8758613609340828
2,4, 1, 4, 0,13, 0.00,60.00,Thursday
281,20.542177114182527
282,20.000021293689874
284,4.353367026200902
2,4, 1, 4, 0,14, 0.00,60.00,Thursday
281,20.53116823673965
282,20.000018659533674
284,6.854440203070054
2,4, 1, 4, 0,15, 0.00,60.00,Thursday
281,20.522380110951987
282,20.000013524310046
284,8.704201929940846
2,4, 1, 4, 0,16, 0.00,60.00,Thursday
281,20.514360379929884
282,20.000017862368716
284,9.563599904263559
2,4, 1, 4, 0,17, 0.00,60.00,Thursday
281,20.506796540060333
282,20.000018825194723
284,9.14604711038353
2,4, 1, 4, 0,18, 0.00,60.00,Thursday
281,20.49985282047284
282,20.000020776868479
284,7.953539377066069
2,4, 1, 4, 0,19, 0.00,60.00,Thursday
281,20.493107813368959
282,20.000028283524889
284,6.793769306645893
2,4, 1, 4, 0,20, 0.00,60.00,Thursday
281,20.486582898013507
282,20.000031521571093
284,5.903891348518551
2,4, 1, 4, 0,21, 0.00,60.00,Thursday
281,20.480014433745063
282,20.000037182158807
284,5.287048456823611
2,4, 1, 4, 0,22, 0.00,60.00,Thursday
281,20.473115882780239
282,20.000030257652047
284,4.722365042268965
2,4, 1, 4, 0,23, 0.00,60.00,Thursday
281,20.46574421397947
282,20.000026675050635
284,4.065789496849824
2,4, 1, 4, 0,24, 0.00,60.00,Thursday
281,20.458061848070579
282,20.00002643221599
284,4.533900144477896
2,5, 1, 5, 0, 1, 0.00,60.00,Friday
281,20.45002051577936
282,20.000026924001998
284,4.709664223987529
2,5, 1, 5, 0, 2, 0.00,60.00,Friday
281,20.441703007919423
282,20.00002006024674
284,5.249412147381123
2,5, 1, 5, 0, 3, 0.00,60.00,Friday
281,20.434340752561423
282,20.00002286565148
284,6.281549032647455
2,5, 1, 5, 0, 4, 0.00,60.00,Friday
281,20.42729365834989
282,20.000027315359
284,6.844659178897329
2,5, 1, 5, 0, 5, 0.00,60.00,Friday
281,20.420429158818526
282,20.000028393424988
284,6.72233474237797
2,5, 1, 5, 0, 6, 0.00,60.00,Friday
281,20.413755829188703
282,20.00002847054932
284,6.564135729365038
2,5, 1, 5, 0, 7, 0.00,60.00,Friday
281,20.406332852689859
282,20.000038543720899
284,5.8632508695339109
2,5, 1, 5, 0, 8, 0.00,60.00,Friday
281,20.399125738583114
282,20.000047640662566
284,5.682084988791768
2,5, 1, 5, 0, 9, 0.00,60.00,Friday
281,20.394223042281764
282,20.000036472876006
284,7.083407685964685
2,5, 1, 5, 0,10, 0.00,60.00,Friday
281,20.391389538368835
282,20.000009587224775
284,10.099227593064878
2,5, 1, 5, 0,11, 0.00,60.00,Friday
281,20.3897935453654
282,20.000007400999775
284,13.664757883773792
2,5, 1, 5, 0,12, 0.00,60.00,Friday
281,20.389241497521789
282,20.13970829082783
284,17.443474263307498
2,5, 1, 5, 0,13, 0.00,60.00,Friday
281,20.389241492377328
282,20.31309854090609
284,20.476456680145526
2,5, 1, 5, 0,14, 0.00,60.00,Friday
281,20.389241500835199
282,20.4173569910322
284,22.214366397583747
2,5, 1, 5, 0,15, 0.00,60.00,Friday
281,20.389241500835735
282,20.409651591574055
284,22.03300654581959
2,5, 1, 5, 0,16, 0.00,60.00,Friday
281,20.3892415008356
282,20.36152477313697
284,19.79041139198522
2,5, 1, 5, 0,17, 0.00,60.00,Friday
281,20.3892415008356
282,20.16532453079069
284,16.647598989622879
2,5, 1, 5, 0,18, 0.00,60.00,Friday
281,20.389241500835597
282,20.053043124671878
284,13.280095115493415
2,5, 1, 5, 0,19, 0.00,60.00,Friday
281,20.389018628692079
282,20.000154966401593
284,10.157515606290984
2,5, 1, 5, 0,20, 0.00,60.00,Friday
281,20.38814504527526
282,20.00003953021655
284,7.787984835788995
2,5, 1, 5, 0,21, 0.00,60.00,Friday
281,20.38614097930509
282,20.000030124425324
284,5.863506151356453
2,5, 1, 5, 0,22, 0.00,60.00,Friday
281,20.382807522111958
282,20.000008324492215
284,4.086462439793068
2,5, 1, 5, 0,23, 0.00,60.00,Friday
281,20.37841727699677
282,20.00000969136948
284,2.5205248641688549
2,5, 1, 5, 0,24, 0.00,60.00,Friday
281,20.37275166034728
282,20.000016349385495
284,1.3993241687333076
2,6, 1, 6, 0, 1, 0.00,60.00,Saturday
281,20.365494593264047
282,20.000010612439817
284,0.8630851000078579
2,6, 1, 6, 0, 2, 0.00,60.00,Saturday
281,20.357154827777277
282,20.000000347389347
284,0.7725304208789421
2,6, 1, 6, 0, 3, 0.00,60.00,Saturday
281,20.34821509132288
282,20.000001722297428
284,0.6894263135275566
2,6, 1, 6, 0, 4, 0.00,60.00,Saturday
281,20.338491644948243
282,20.000000063117477
284,0.4244217227378088
2,6, 1, 6, 0, 5, 0.00,60.00,Saturday
281,20.327692751075938
282,20.000000002425759
284,-0.27350414015404236
2,6, 1, 6, 0, 6, 0.00,60.00,Saturday
281,20.31567155521852
282,20.0000000001046
284,-0.9695315965957415
2,6, 1, 6, 0, 7, 0.00,60.00,Saturday
281,20.302424769473185
282,20.000061957555397
284,-1.167914559875442
2,6, 1, 6, 0, 8, 0.00,60.00,Saturday
281,20.28948944812708
282,20.000042740084376
284,-1.0855243984956274
2,6, 1, 6, 0, 9, 0.00,60.00,Saturday
281,20.277050758039637
282,20.000001569905483
284,0.13116694974328522
2,6, 1, 6, 0,10, 0.00,60.00,Saturday
281,20.266747666579034
282,20.00000005298519
284,2.10901399247853
2,6, 1, 6, 0,11, 0.00,60.00,Saturday
281,20.258795993589655
282,20.00000000143151
284,5.754140648748694
2,6, 1, 6, 0,12, 0.00,60.00,Saturday
281,20.253685301682944
282,20.000000000030004
284,9.327503470921294
2,6, 1, 6, 0,13, 0.00,60.00,Saturday
281,20.250301891518118
282,20.000000000000644
284,10.905608586719069
2,6, 1, 6, 0,14, 0.00,60.00,Saturday
281,20.24725482862878
282,20.000011840748653
284,11.123084780782892
2,6, 1, 6, 0,15, 0.00,60.00,Saturday
281,20.244338171281446
282,20.000008212039935
284,10.661991334217309
2,6, 1, 6, 0,16, 0.00,60.00,Saturday
281,20.241391959274176
282,20.000000153706535
284,9.376491573116035
2,6, 1, 6, 0,17, 0.00,60.00,Saturday
281,20.237563160634303
282,20.000000004248546
284,7.2937670137324039
2,6, 1, 6, 0,18, 0.00,60.00,Saturday
281,20.232260897060145
282,20.000000000124915
284,4.850630075916174
2,6, 1, 6, 0,19, 0.00,60.00,Saturday
281,20.226204867943748
282,20.000000000004133
284,2.309407615640911
2,6, 1, 6, 0,20, 0.00,60.00,Saturday
281,20.218660391737587
282,20.000039402808914
284,0.4013421671790858
2,6, 1, 6, 0,21, 0.00,60.00,Saturday
281,20.20962299356686
282,20.000039702063196
284,-1.32229342386479
2,6, 1, 6, 0,22, 0.00,60.00,Saturday
281,20.19934208593558
282,20.000053191728385
284,-2.9289601377310618
2,6, 1, 6, 0,23, 0.00,60.00,Saturday
281,20.186482004066144
282,20.00015516607639
284,-4.014081298362636
2,6, 1, 6, 0,24, 0.00,60.00,Saturday
281,20.17188258877424
282,20.00010943620528
284,-4.86141680867609
2,7, 1, 7, 0, 1, 0.00,60.00,Sunday
281,20.154916290193787
282,20.000016929004809
284,-5.473468350697477
2,7, 1, 7, 0, 2, 0.00,60.00,Sunday
281,20.136309145344048
282,20.000000980677027
284,-5.835878924952662
2,7, 1, 7, 0, 3, 0.00,60.00,Sunday
281,20.117278971607886
282,20.00000006293176
284,-6.423341044355309
2,7, 1, 7, 0, 4, 0.00,60.00,Sunday
281,20.09580176619288
282,20.000000004311198
284,-7.254060798942735
2,7, 1, 7, 0, 5, 0.00,60.00,Sunday
281,20.072250960479594
282,20.000000000323433
284,-8.359425762879584
2,7, 1, 7, 0, 6, 0.00,60.00,Sunday
281,20.045750154705109
282,20.000024202168775
284,-9.010859696392752
2,7, 1, 7, 0, 7, 0.00,60.00,Sunday
281,20.019758700152229
282,20.000001773241409
284,-9.41354892110777
2,7, 1, 7, 0, 8, 0.00,60.00,Sunday
281,19.993801634547279
282,20.000000099537965
284,-8.123652778687053
2,7, 1, 7, 0, 9, 0.00,60.00,Sunday
281,19.975532713475915
282,20.000000005220796
284,-5.917060650145938
2,7, 1, 7, 0,10, 0.00,60.00,Sunday
281,19.96027217268185
282,20.00000000025758
284,-3.441965463814243
2,7, 1, 7, 0,11, 0.00,60.00,Sunday
281,19.94760618060277
282,20.00000000001153
284,-1.0001606465822227
2,7, 1, 7, 0,12, 0.00,60.00,Sunday
281,19.93758439120899
282,20.000000000000509
284,1.4369456248251762
2,7, 1, 7, 0,13, 0.00,60.00,Sunday
281,19.92988415350146
282,20.00000000000004
284,3.6008801943604404
2,7, 1, 7, 0,14, 0.00,60.00,Sunday
281,19.923712577537804
282,20.000000000000108
284,5.132019244905609
2,7, 1, 7, 0,15, 0.00,60.00,Sunday
281,19.918373926167197
282,19.999999999999944
284,5.774156043195403
2,7, 1, 7, 0,16, 0.00,60.00,Sunday
281,19.913465261716938
282,20.000000000000033
284,5.736451165811459
2,7, 1, 7, 0,17, 0.00,60.00,Sunday
281,19.908610973834674
282,19.999999999999944
284,5.368648893294747
2,7, 1, 7, 0,18, 0.00,60.00,Sunday
281,19.903579333464383
282,20.00000000000007
284,5.069876482179233
2,7, 1, 7, 0,19, 0.00,60.00,Sunday
281,19.89908455611344
282,20.000000000000065
284,4.745002434328443
2,7, 1, 7, 0,20, 0.00,60.00,Sunday
281,19.89514532454813
282,20.00000000000006
284,4.380927638413592
2,7, 1, 7, 0,21, 0.00,60.00,Sunday
281,19.89118173046939
282,20.000000000000129
284,3.7457696045070199
2,7, 1, 7, 0,22, 0.00,60.00,Sunday
281,19.886532696392434
282,20.00000000000004
284,2.505300136299746
2,7, 1, 7, 0,23, 0.00,60.00,Sunday
281,19.880793301063116
282,20.00000000000006
284,1.3619354963392834
2,7, 1, 7, 0,24, 0.00,60.00,Sunday
281,19.874230294509507
282,20.00000130565742
284,1.0949645590685624
2,8, 1, 8, 0, 1, 0.00,60.00,Monday
281,19.86798002475466
282,20.000002684910247
284,1.2716899219108884
2,8, 1, 8, 0, 2, 0.00,60.00,Monday
281,19.86159097227829
282,20.000000113251017
284,1.380910339894286
2,8, 1, 8, 0, 3, 0.00,60.00,Monday
281,19.85500629180778
282,20.000000005220188
284,1.141765441424655
2,8, 1, 8, 0, 4, 0.00,60.00,Monday
281,19.84805530856933
282,20.00000000029503
284,0.7149553272069263
2,8, 1, 8, 0, 5, 0.00,60.00,Monday
281,19.838512791758189
282,20.00000000001714
284,0.20971865940270996
2,8, 1, 8, 0, 6, 0.00,60.00,Monday
281,19.828180840972814
282,20.000000000000978
284,-0.6103444003909261
2,8, 1, 8, 0, 7, 0.00,60.00,Monday
281,19.818724077905768
282,20.000000000000175
284,-1.6424732725019876
2,8, 1, 8, 0, 8, 0.00,60.00,Monday
281,19.80799316578324
282,20.000000000000055
284,-2.0962166594672966
2,8, 1, 8, 0, 9, 0.00,60.00,Monday
281,19.798202135362744
282,20.000000000000069
284,-0.32257810971457298
2,8, 1, 8, 0,10, 0.00,60.00,Monday
281,19.79127135922423
282,20.000000000000055
284,2.7665365975492799
2,8, 1, 8, 0,11, 0.00,60.00,Monday
281,19.78768400981182
282,20.00000000000005
284,6.54190157485434
2,8, 1, 8, 0,12, 0.00,60.00,Monday
281,19.78558561599807
282,20.000000000000058
284,10.031338517505349
2,8, 1, 8, 0,13, 0.00,60.00,Monday
281,19.784417683048017
282,20.000000000000026
284,13.175295931628364
2,8, 1, 8, 0,14, 0.00,60.00,Monday
281,19.783888681854856
282,19.999999999999998
284,15.671367444087414
2,8, 1, 8, 0,15, 0.00,60.00,Monday
281,19.783869570330976
282,20.000000000000005
284,16.61101870659421
2,8, 1, 8, 0,16, 0.00,60.00,Monday
281,19.78382162287983
282,20.018596135481514
284,15.844262991817829
2,8, 1, 8, 0,17, 0.00,60.00,Monday
281,19.784309590613874
282,20.00013613831993
284,13.589404382410475
2,8, 1, 8, 0,18, 0.00,60.00,Monday
281,19.784874817758124
282,20.00000242983075
284,10.272366458938985
2,8, 1, 8, 0,19, 0.00,60.00,Monday
281,19.78463336895795
282,20.000001909826677
284,7.074244839712227
2,8, 1, 8, 0,20, 0.00,60.00,Monday
281,19.78330846592846
282,20.000047234157159
284,4.562530346489382
2,8, 1, 8, 0,21, 0.00,60.00,Monday
281,19.7805938795303
282,20.00004549999819
284,2.762761855291461
2,8, 1, 8, 0,22, 0.00,60.00,Monday
281,19.77799233762538
282,20.00003487718451
284,1.412501329568587
2,8, 1, 8, 0,23, 0.00,60.00,Monday
281,19.774069832928356
282,20.000025658136747
284,0.43285608148279089
2,8, 1, 8, 0,24, 0.00,60.00,Monday
281,19.77041602857046
282,20.000031863628466
284,-0.37508303497442666
2,9, 1, 9, 0, 1, 0.00,60.00,Tuesday
281,19.765225044202429
282,20.000028970333358
284,-1.0994794669978519
2,9, 1, 9, 0, 2, 0.00,60.00,Tuesday
281,19.758544925772904
282,20.0000249447752
284,-1.7064747675276686
2,9, 1, 9, 0, 3, 0.00,60.00,Tuesday
281,19.75124992078328
282,20.000021258150864
284,-2.1535637089618935
2,9, 1, 9, 0, 4, 0.00,60.00,Tuesday
281,19.7434147953531
282,20.00001907996016
284,-2.4619236073496615
2,9, 1, 9, 0, 5, 0.00,60.00,Tuesday
281,19.73509160302958
282,20.00001800066175
284,-2.8472903558904329
2,9, 1, 9, 0, 6, 0.00,60.00,Tuesday
281,19.726513708332708
282,20.00001886486502
284,-3.1385462400847774
2,9, 1, 9, 0, 7, 0.00,60.00,Tuesday
281,19.717548419078804
282,20.000012466566124
284,-4.1490970532371549
2,9, 1, 9, 0, 8, 0.00,60.00,Tuesday
281,19.70758570209048
282,20.00001480552291
284,-4.276112434462154
2,9, 1, 9, 0, 9, 0.00,60.00,Tuesday
281,19.698779194098646
282,20.000014659362468
284,-2.054723665874156
2,9, 1, 9, 0,10, 0.00,60.00,Tuesday
281,19.69268117604812
282,20.000000695017208
284,1.06587635011464
2,9, 1, 9, 0,11, 0.00,60.00,Tuesday
281,19.688830563367988
282,20.000000017510833
284,4.804496634880178
2,9, 1, 9, 0,12, 0.00,60.00,Tuesday
281,19.686799479107909
282,20.000000000385776
284,8.220075372230172
2,9, 1, 9, 0,13, 0.00,60.00,Tuesday
281,19.6859844254865
282,20.00000000000748
284,10.534935142261976
2,9, 1, 9, 0,14, 0.00,60.00,Tuesday
281,19.685579816935279
282,20.000000000000143
284,11.74034206436628
2,9, 1, 9, 0,15, 0.00,60.00,Tuesday
281,19.685262970590605
282,19.99999999999999
284,12.143673361762743
2,9, 1, 9, 0,16, 0.00,60.00,Tuesday
281,19.685310678563036
282,19.99999999999999
284,11.507301654891219
2,9, 1, 9, 0,17, 0.00,60.00,Tuesday
281,19.68580487018025
282,19.999999999999966
284,9.781799290213828
2,9, 1, 9, 0,18, 0.00,60.00,Tuesday
281,19.686032638266373
282,20.000000000000026
284,7.288005775895095
2,9, 1, 9, 0,19, 0.00,60.00,Tuesday
281,19.685522238676396
282,20.000005145110618
284,4.812200349163439
2,9, 1, 9, 0,20, 0.00,60.00,Tuesday
281,19.68413011092392
282,20.00002147969455
284,3.099608207402746
2,9, 1, 9, 0,21, 0.00,60.00,Tuesday
281,19.682816701091789
282,20.000046063022013
284,1.6558833992187548
2,9, 1, 9, 0,22, 0.00,60.00,Tuesday
281,19.68032820228001
282,20.000046553312957
284,0.49014993133574127
2,9, 1, 9, 0,23, 0.00,60.00,Tuesday
281,19.677221599394249
282,20.00004827024578
284,-0.5180921772863553
2,9, 1, 9, 0,24, 0.00,60.00,Tuesday
281,19.67367264161777
282,20.00005267864891
284,-1.5383216612580116
2,10, 1,10, 0, 1, 0.00,60.00,Wednesday
281,19.668011986980156
282,20.000071722973737
284,-2.338379306666753
2,10, 1,10, 0, 2, 0.00,60.00,Wednesday
281,19.6615233392173
282,20.00005755734414
284,-3.0379454571140536
2,10, 1,10, 0, 3, 0.00,60.00,Wednesday
281,19.654032243427179
282,20.00002733231636
284,-3.6517129478785117
2,10, 1,10, 0, 4, 0.00,60.00,Wednesday
281,19.646621889367258
282,20.000014019983135
284,-4.16017653649673
2,10, 1,10, 0, 5, 0.00,60.00,Wednesday
281,19.637908539846895
282,20.000002296955459
284,-4.5181163347564798
2,10, 1,10, 0, 6, 0.00,60.00,Wednesday
281,19.628615423471353
282,20.00000013664008
284,-4.9852606961256529
2,10, 1,10, 0, 7, 0.00,60.00,Wednesday
281,19.6183618185485
282,20.00000000768695
284,-5.314860434949181
2,10, 1,10, 0, 8, 0.00,60.00,Wednesday
281,19.608707536280986
282,20.00000000041533
284,-5.01449225935594
2,10, 1,10, 0, 9, 0.00,60.00,Wednesday
281,19.598663692521034
282,20.000000000018536
284,-2.9444662353632027
2,10, 1,10, 0,10, 0.00,60.00,Wednesday
281,19.591817515378208
282,20.000000000000804
284,0.048012925416211698
2,10, 1,10, 0,11, 0.00,60.00,Wednesday
281,19.58717325829635
282,20.000013481649416
284,4.39163350812894
2,10, 1,10, 0,12, 0.00,60.00,Wednesday
281,19.584498884968249
282,20.000017456572313
284,8.72258940939334
2,10, 1,10, 0,13, 0.00,60.00,Wednesday
281,19.583570233536489
282,20.000000916633988
284,13.128437835122444
2,10, 1,10, 0,14, 0.00,60.00,Wednesday
281,19.583565489438553
282,20.000000004674076
284,16.24316489811695
2,10, 1,10, 0,15, 0.00,60.00,Wednesday
281,19.583492233752844
282,20.00000000000448
284,17.8696374828925
2,10, 1,10, 0,16, 0.00,60.00,Wednesday
281,19.58357401125281
282,20.00000000000001
284,17.150158220454583
2,10, 1,10, 0,17, 0.00,60.00,Wednesday
281,19.584520753764136
282,20.000000000000015
284,14.443992699972853
2,10, 1,10, 0,18, 0.00,60.00,Wednesday
281,19.58599546825649
282,20.000000000000037
284,10.759348040122843
2,10, 1,10, 0,19, 0.00,60.00,Wednesday
281,19.58695298228189
282,19.999999999999984
284,7.169966995573817
2,10, 1,10, 0,20, 0.00,60.00,Wednesday
281,19.58682109443076
282,19.999999999999976
284,4.222678047353477
2,10, 1,10, 0,21, 0.00,60.00,Wednesday
281,19.586204477075719
282,20.000041422561904
284,2.1610111560711489
2,10, 1,10, 0,22, 0.00,60.00,Wednesday
281,19.585607694227677
282,20.000044129534339
284,0.5573790936759675
2,10, 1,10, 0,23, 0.00,60.00,Wednesday
281,19.583608239913987
282,20.00001366451434
284,-0.9019109287071797
2,10, 1,10, 0,24, 0.00,60.00,Wednesday
281,19.58168772000157
282,20.00000394047858
284,-2.0649541163758249
2,11, 1,11, 0, 1, 0.00,60.00,Thursday
281,19.576757581520057
282,20.000000205446928
284,-2.883770126831692
2,11, 1,11, 0, 2, 0.00,60.00,Thursday
281,19.571470223718323
282,20.00000001127145
284,-3.6873862526822895
2,11, 1,11, 0, 3, 0.00,60.00,Thursday
281,19.56470507466197
282,20.000000000607558
284,-4.408484231782144
2,11, 1,11, 0, 4, 0.00,60.00,Thursday
281,19.558138668507497
282,20.000000000034399
284,-4.804730917596094
2,11, 1,11, 0, 5, 0.00,60.00,Thursday
281,19.55072956439219
282,20.000000000002044
284,-4.751664205799175
2,11, 1,11, 0, 6, 0.00,60.00,Thursday
281,19.542544986096617
282,20.000000000000168
284,-4.434131335223832
2,11, 1,11, 0, 7, 0.00,60.00,Thursday
281,19.53505174667203
282,19.999999999999966
284,-4.20904408420547
2,11, 1,11, 0, 8, 0.00,60.00,Thursday
281,19.52796527101086
282,20.000000000000005
284,-3.7722501113254127
2,11, 1,11, 0, 9, 0.00,60.00,Thursday
281,19.521492043787587
282,20.000000000000143
284,-2.332859365887308
2,11, 1,11, 0,10, 0.00,60.00,Thursday
281,19.513925147455337
282,20.000014765350156
284,0.577488848454421
2,11, 1,11, 0,11, 0.00,60.00,Thursday
281,19.509302992847215
282,20.00000037507759
284,4.596875993834788
2,11, 1,11, 0,12, 0.00,60.00,Thursday
281,19.507782918919529
282,20.00000000654644
284,9.734657708290376
2,11, 1,11, 0,13, 0.00,60.00,Thursday
281,19.507504107170744
282,20.00000000007504
284,13.621039510645037
2,11, 1,11, 0,14, 0.00,60.00,Thursday
281,19.507760901985465
282,20.000000000000534
284,15.808928399612518
2,11, 1,11, 0,15, 0.00,60.00,Thursday
281,19.50855246307446
282,20.000000000000015
284,16.21510825974163
2,11, 1,11, 0,16, 0.00,60.00,Thursday
281,19.509698273120848
282,19.999999999999994
284,15.129555072415546
2,11, 1,11, 0,17, 0.00,60.00,Thursday
281,19.510969908397948
282,20.00000000000004
284,13.081589352291403
2,11, 1,11, 0,18, 0.00,60.00,Thursday
281,19.511729062765203
282,19.999999999999994
284,10.733393131092317
2,11, 1,11, 0,19, 0.00,60.00,Thursday
281,19.51208625585427
282,20.000000000000026
284,8.912818686768093
2,11, 1,11, 0,20, 0.00,60.00,Thursday
281,19.51293783179312
282,20.000000000000005
284,7.491262240454279
2,11, 1,11, 0,21, 0.00,60.00,Thursday
281,19.5135275356182
282,20.000006743828299
284,6.284317349632143
2,11, 1,11, 0,22, 0.00,60.00,Thursday
281,19.513400500747893
282,20.000006113004859