Program Version,EnergyPlus, Version 9.3.0-baff08990c, YMD=2020.09.21 15:37
1,5,Environment Title[],Latitude[deg],Longitude[deg],Time Zone[],Elevation[m]
2,8,Day of Simulation[],Month[],Day of Month[],DST Indicator[1=yes 0=no],Hour[],StartMinute[],EndMinute[],DayType
3,5,Cumulative Day of Simulation[],Month[],Day of Month[],DST Indicator[1=yes 0=no],DayType  ! When Daily Meters Requested
4,2,Cumulative Days of Simulation[],Month[]  ! When Monthly Meters Requested
5,1,Cumulative Days of Simulation[] ! When Run Period Meters Requested
6,1,Calendar Year of Simulation[] ! When Annual Meters Requested
21,11,Electricity:Facility [J] !RunPeriod [Value,Min,Month,Day,Hour,Minute,Max,Month,Day,Hour,Minute]
893,11,Gas:Facility [J] !RunPeriod [Value,Min,Month,Day,Hour,Minute,Max,Month,Day,Hour,Minute]
112,11,interior lighting:InteriorLights:Electricity [J] !RunPeriod [Value,Min,Month,Day,Hour,Minute,Max,Month,Day,Hour,Minute]
33,11,ExteriorLights:Electricity [J] !RunPeriod [Value,Min,Month,Day,Hour,Minute,Max,Month,Day,Hour,Minute]
224,11,mech vent:InteriorEquipment:Electricity [J] !RunPeriod [Value,Min,Month,Day,Hour,Minute,Max,Month,Day,Hour,Minute]
272,11,whole house fan:InteriorEquipment:Electricity [J] !RunPeriod [Value,Min,Month,Day,Hour,Minute,Max,Month,Day,Hour,Minute]
209,11,fridge:InteriorEquipment:Electricity [J] !RunPeriod [Value,Min,Month,Day,Hour,Minute,Max,Month,Day,Hour,Minute]
194,11,dishwasher:InteriorEquipment:Electricity [J] !RunPeriod [Value,Min,Month,Day,Hour,Minute,Max,Month,Day,Hour,Minute]
164,11,clothes washer:InteriorEquipment:Electricity [J] !RunPeriod [Value,Min,Month,Day,Hour,Minute,Max,Month,Day,Hour,Minute]
149,11,clothes dryer:InteriorEquipment:Electricity [J] !RunPeriod [Value,Min,Month,Day,Hour,Minute,Max,Month,Day,Hour,Minute]
179,11,cooking range:InteriorEquipment:Electricity [J] !RunPeriod [Value,Min,Month,Day,Hour,Minute,Max,Month,Day,Hour,Minute]
257,11,misc tv:InteriorEquipment:Electricity [J] !RunPeriod [Value,Min,Month,Day,Hour,Minute,Max,Month,Day,Hour,Minute]
242,11,misc plug loads:InteriorEquipment:Electricity [J] !RunPeriod [Value,Min,Month,Day,Hour,Minute,Max,Month,Day,Hour,Minute]
17,1,Electricity:Facility [J] !Hourly
889,1,Gas:Facility [J] !Hourly
108,1,interior lighting:InteriorLights:Electricity [J] !Hourly
29,1,ExteriorLights:Electricity [J] !Hourly
220,1,mech vent:InteriorEquipment:Electricity [J] !Hourly
268,1,whole house fan:InteriorEquipment:Electricity [J] !Hourly
205,1,fridge:InteriorEquipment:Electricity [J] !Hourly
190,1,dishwasher:InteriorEquipment:Electricity [J] !Hourly
160,1,clothes washer:InteriorEquipment:Electricity [J] !Hourly
145,1,clothes dryer:InteriorEquipment:Electricity [J] !Hourly
175,1,cooking range:InteriorEquipment:Electricity [J] !Hourly
253,1,misc tv:InteriorEquipment:Electricity [J] !Hourly
238,1,misc plug loads:InteriorEquipment:Electricity [J] !Hourly
End of Data Dictionary
1,RUN PERIOD 1,  39.83,-104.65,  -7.00,1650.00
2,1, 1, 1, 0, 1, 0.00,60.00,Monday
17,2090214.500292675
29,55437.35282333784
108,177271.88606911564
145,43768.218014775535
160,0.0
175,33823.53604600406
190,0.0
205,214406.6124122581
220,0.0
238,1059487.2739995344
253,100800.96564864912
268,0.0
889,11817182.611857685
2,1, 1, 1, 0, 2, 0.00,60.00,Monday
17,1939081.6227053519
29,55437.35282333784
108,106363.13164146894
145,26260.930808865287
160,0.0
175,33823.53604600406
190,0.0
205,209046.44710195173
220,0.0
238,998945.1440567039
253,49038.30761285648
268,0.0
889,14700300.51309465
2,1, 1, 1, 0, 3, 0.00,60.00,Monday
17,1847906.5306159058
29,55437.35282333784
108,70908.75442764597
145,17507.28720591018
160,0.0
175,19327.734883430905
190,0.0
205,203686.28179164505
220,0.0
238,968674.0790852889
253,24519.15380642829
268,0.0
889,16152618.679224832
2,1, 1, 1, 0, 4, 0.00,60.00,Monday
17,1818178.3680824536
29,55437.35282333784
108,70908.75442764597
145,8753.643602955108
160,0.0
175,19327.734883430905
190,0.0
205,198326.11648133864
220,0.0
238,938403.0141138737
253,19070.452960555278
268,0.0
889,17207546.06579253
2,1, 1, 1, 0, 5, 0.00,60.00,Monday
17,1892337.592622498
29,55437.35282333784
108,78834.5780400541
145,17507.28720591018
160,0.0
175,33823.53604600406
190,0.0
205,192965.95117103228
220,0.0
238,968674.0790852889
253,29967.854652301197
268,0.0
889,17584051.391852473
2,1, 1, 1, 0, 6, 0.00,60.00,Monday
17,2087499.1290412215
29,44590.91422746733
108,216312.83365792936
145,26260.930808865287
160,0.0
175,53151.2709294349
190,0.0
205,192965.95117103228
220,0.0
238,998945.1440567039
253,49038.30761285648
268,0.0
889,17117427.98210838
2,1, 1, 1, 0, 7, 0.00,60.00,Monday
17,2640109.5162859845
29,42180.59453949619
108,507842.8209344053
145,70029.14882364079
160,0.0
175,120798.34302144323
190,0.0
205,203686.28179164505
220,0.0
238,1120029.4039423646
253,79006.16226515768
268,0.0
889,16608627.305269175
2,1, 1, 1, 0, 8, 0.00,60.00,Monday
17,3097934.1241507579
29,40975.43469551049
108,642661.9982612429
145,140058.29764728159
160,0.0
175,202941.21627602424
190,0.0
205,214406.6124122581
220,0.0
238,1271384.7287994417
253,108974.01691745919
268,0.0
889,15558971.581110649
2,1, 1, 1, 0, 9, 0.00,60.00,Monday
17,11384012.34889356
29,39770.274851524926
108,682969.2057954291
145,210087.44647092239
160,2119432.8482980139
175,222268.95115945536
190,0.0
205,219766.7777225645
220,0.0
238,1301655.7937708568
253,133493.17072388737
268,0.0
889,13273461.431874285
2,1, 1, 1, 0,10, 0.00,60.00,Monday
17,2853480.6015675545
29,33744.47563159696
108,702044.5836155546
145,297623.88250047308
160,0.0
175,231932.81860117054
190,0.0
205,219766.7777225645
220,0.0
238,1301655.7937708568
253,158012.32453031557
268,0.0
889,7809840.952346091
2,1, 1, 1, 0,11, 0.00,60.00,Monday
17,3193337.8674566519
29,26513.51656768328
108,682956.4748524042
145,341392.10051524869
160,0.0
175,202941.21627602424
190,0.0
205,214406.6124122581
220,0.0
238,1301655.7937708568
253,177082.77749087104
268,0.0
889,3483438.677144382
2,1, 1, 1, 0,12, 0.00,60.00,Monday
17,3212575.6822127464
29,18077.397659784045
108,656510.4177223966
145,354522.5659196813
160,0.0
175,241596.68604288577
190,0.0
205,214406.6124122581
220,0.0
238,1331926.858742272
253,196153.23045142654
268,0.0
889,1016965.526683383
2,1, 1, 1, 0,13, 0.00,60.00,Monday
17,4439074.735160591
29,14461.918127827212
108,637422.3089592449
145,323884.81330933838
160,0.0
175,275420.22208889006
190,0.0
205,225126.94303287086
220,0.0
238,1362197.923713687
253,207050.63214317195
268,0.0
889,746628.9086335086
2,1, 1, 1, 0,14, 0.00,60.00,Monday
17,3097850.302918172
29,13256.75828384164
108,631805.352995919
145,293247.0606989958
160,0.0
175,222268.95115945536
190,0.0
205,225126.94303287086
220,0.0
238,1362197.923713687
253,234294.1363725365
268,0.0
889,1014268.6338587273
2,1, 1, 1, 0,15, 0.00,60.00,Monday
17,4342558.182041843
29,13256.75828384164
108,641650.1144130287
145,249478.84268422027
160,0.0
175,275420.22208889006
190,0.0
205,225126.94303287086
220,0.0
238,1331926.858742272
253,247915.8884872192
268,0.0
889,409598.651748353
2,1, 1, 1, 0,16, 0.00,60.00,Monday
17,4819661.920021005
29,14461.918127827212
108,701717.8676761182
145,266986.12989013016
160,410235.39463946627
175,212605.08371773945
190,0.0
205,219766.7777225645
220,0.0
238,1392468.988685102
253,277883.7431395201
268,0.0
889,585105.0940086471
2,1, 1, 1, 0,17, 0.00,60.00,Monday
17,3756731.1804412847
29,22898.037035726447
108,861763.5565792262
145,240725.19908126497
160,0.0
175,444537.90231891
190,0.0
205,235847.27365348399
220,0.0
238,1453011.118627934
253,345992.50371293208
268,0.0
889,2973002.118719621
2,1, 1, 1, 0,18, 0.00,60.00,Monday
17,5922480.342892926
29,44590.91422746733
108,1142849.1953402723
145,236348.3772797876
160,0.0
175,724790.058128658
190,0.0
205,257287.9348947098
220,0.0
238,1574095.3785135945
253,424998.6659780903
268,0.0
889,6075768.58169367
2,1, 1, 1, 0,19, 0.00,60.00,Monday
17,12634105.741510753
29,59052.83235529466
108,1401897.8211611738
145,223217.911875355
160,0.0
175,565336.2453403532
190,0.0
205,268008.26551532259
220,0.0
238,1604366.4434850096
253,572113.5888166594
268,0.0
889,8554533.47276832
2,1, 1, 1, 0,20, 0.00,60.00,Monday
17,5394622.620903289
29,78335.3898590643
108,1419315.406661243
145,223217.911875355
160,0.0
175,289916.02325146328
190,0.0
205,257287.9348947098
220,0.0
238,1513553.2485707643
253,800959.0243433232
268,0.0
889,9680335.324229673
2,1, 1, 1, 0,21, 0.00,60.00,Monday
17,4654028.687778245
29,109669.54580268997
108,1178333.499178719
145,227594.73367683232
160,0.0
175,169117.68023001997
190,0.0
205,251927.7695844031
220,0.0
238,1422740.0536565174
253,988939.2035259396
268,0.0
889,10196579.23410936
2,1, 1, 1, 0,22, 0.00,60.00,Monday
17,4313970.4305076249
29,126541.78361848845
108,889031.5687130868
145,236348.3772797876
160,0.0
175,120798.34302144323
190,0.0
205,246567.6042740967
220,0.0
238,1362197.923713687
253,937176.5454901469
268,0.0
889,11297187.221954968
2,1, 1, 1, 0,23, 0.00,60.00,Monday
17,4726780.600926479
29,109669.54580268997
108,768431.1964658087
145,192580.15926501208
160,0.0
175,77310.93953372377
190,0.0
205,235847.27365348399
220,0.0
238,1210842.5988566115
253,566664.8879707868
268,0.0
889,12868761.20967179
2,1, 1, 1, 0,24, 0.00,60.00,Monday
17,2546914.16386018
29,75925.07017109303
108,357012.38548524
145,105043.723235461
160,0.0
175,53151.2709294349
190,0.0
205,219766.7777225645
220,0.0
238,1089758.3389709492
253,245191.53806428289
268,0.0
889,15773391.591226075
2,2, 1, 2, 0, 1, 0.00,60.00,Tuesday
17,2187207.4762694418
29,55437.35282333784
108,177271.88606911564
145,43768.218014775535
160,0.0
175,33823.53604600406
190,0.0
205,214406.6124122581
220,0.0
238,1059487.2739995344
253,100800.96564864912
268,0.0
889,16906386.735579526
2,2, 1, 2, 0, 2, 0.00,60.00,Tuesday
17,1984130.032092956
29,55437.35282333784
108,106363.13164146894
145,26260.930808865287
160,0.0
175,33823.53604600406
190,0.0
205,209046.44710195173
220,0.0
238,998945.1440567039
253,49038.30761285648
268,0.0
889,17063982.50670026
2,2, 1, 2, 0, 3, 0.00,60.00,Tuesday
17,1868361.586028054
29,55437.35282333784
108,70908.75442764597
145,17507.28720591018
160,0.0
175,19327.734883430905
190,0.0
205,203686.28179164505
220,0.0
238,968674.0790852889
253,24519.15380642829
268,0.0
889,17225891.78282976
2,2, 1, 2, 0, 4, 0.00,60.00,Tuesday
17,1841409.1653278173
29,55437.35282333784
108,70908.75442764597
145,8753.643602955108
160,0.0
175,19327.734883430905
190,0.0
205,198326.11648133864
220,0.0
238,938403.0141138737
253,19070.452960555278
268,0.0
889,18426461.8475577
2,2, 1, 2, 0, 5, 0.00,60.00,Tuesday
17,1882036.3382387849
29,55437.35282333784
108,78834.5780400541
145,17507.28720591018
160,0.0
175,33823.53604600406
190,0.0
205,192965.95117103228
220,0.0
238,968674.0790852889
253,29967.854652301197
268,0.0
889,17043546.414444016
2,2, 1, 2, 0, 6, 0.00,60.00,Tuesday
17,2088601.5786319446
29,44590.91422746733
108,216312.83365792936
145,26260.930808865287
160,0.0
175,53151.2709294349
190,0.0
205,192965.95117103228
220,0.0
238,998945.1440567039
253,49038.30761285648
268,0.0
889,17175273.315203914
2,2, 1, 2, 0, 7, 0.00,60.00,Tuesday
17,2631457.492347946
29,42180.59453949619
108,507842.8209344053
145,70029.14882364079
160,0.0
175,120798.34302144323
190,0.0
205,203686.28179164505
220,0.0
238,1120029.4039423646
253,79006.16226515768
268,0.0
889,16154657.15474454
2,2, 1, 2, 0, 8, 0.00,60.00,Tuesday
17,4250741.819936884
29,40975.43469551049
108,642661.9982612429
145,140058.29764728159
160,0.0
175,202941.21627602424
190,0.0
205,214406.6124122581
220,0.0
238,1271384.7287994417
253,108974.01691745919
268,0.0
889,14380690.331419602
2,2, 1, 2, 0, 9, 0.00,60.00,Tuesday
17,3149148.1330298779
29,39770.274851524926
108,682969.2057954291
145,210087.44647092239
160,0.0
175,222268.95115945536
190,0.0
205,219766.7777225645
220,0.0
238,1301655.7937708568
253,133493.17072388737
268,0.0
889,12652476.517145785
2,2, 1, 2, 0,10, 0.00,60.00,Tuesday
17,4509616.344367249
29,33744.47563159696
108,702044.5836155546
145,297623.88250047308
160,0.0
175,231932.81860117054
190,0.0
205,219766.7777225645
220,0.0
238,1301655.7937708568
253,158012.32453031557
268,0.0
889,7859527.716250794
2,2, 1, 2, 0,11, 0.00,60.00,Tuesday
17,4298742.049320072
29,26513.51656768328
108,682956.4748524042
145,341392.10051524869
160,0.0
175,202941.21627602424
190,0.0
205,214406.6124122581
220,0.0
238,1301655.7937708568
253,177082.77749087104
268,0.0
889,3134509.839403581
2,2, 1, 2, 0,12, 0.00,60.00,Tuesday
17,3118663.32874553
29,18077.397659784045
108,656510.4177223966
145,354522.5659196813
160,0.0
175,241596.68604288577
190,0.0
205,214406.6124122581
220,0.0
238,1331926.858742272
253,196153.23045142654
268,0.0
889,476079.87983141347
2,2, 1, 2, 0,13, 0.00,60.00,Tuesday
17,4380609.489024594
29,14461.918127827212
108,637422.3089592449
145,323884.81330933838
160,0.0
175,275420.22208889006
190,0.0
205,225126.94303287086
220,0.0
238,1362197.923713687
253,207050.63214317195
268,0.0
889,0.0
2,2, 1, 2, 0,14, 0.00,60.00,Tuesday
17,3081606.2348578877
29,13256.75828384164
108,631805.352995919
145,293247.0606989958
160,0.0
175,222268.95115945536
190,0.0
205,225126.94303287086
220,0.0
238,1362197.923713687
253,234294.1363725365
268,0.0
889,0.0
2,2, 1, 2, 0,15, 0.00,60.00,Tuesday
17,2984775.6277323428
29,13256.75828384164
108,641650.1144130287
145,249478.84268422027
160,0.0
175,275420.22208889006
190,0.0
205,225126.94303287086
220,0.0
238,1331926.858742272
253,247915.8884872192
268,0.0
889,0.0
2,2, 1, 2, 0,16, 0.00,60.00,Tuesday
17,4436308.3030342119
29,14461.918127827212
108,701717.8676761182
145,266986.12989013016
160,0.0
175,212605.08371773945
190,0.0
205,219766.7777225645
220,0.0
238,1392468.988685102
253,277883.7431395201
268,0.0
889,0.0
2,2, 1, 2, 0,17, 0.00,60.00,Tuesday
17,3703112.0752370564
29,22898.037035726447
108,861763.5565792262
145,240725.19908126497
160,0.0
175,444537.90231891
190,0.0
205,235847.27365348399
220,0.0
238,1453011.118627934
253,345992.50371293208
268,0.0
889,0.0
2,2, 1, 2, 0,18, 0.00,60.00,Tuesday
17,4619174.276682852
29,44590.91422746733
108,1142849.1953402723
145,236348.3772797876
160,0.0
175,724790.058128658
190,0.0
205,257287.9348947098
220,0.0
238,1574095.3785135945
253,424998.6659780903
268,0.0
889,1795189.4726690395
2,2, 1, 2, 0,19, 0.00,60.00,Tuesday
17,4951991.205415663
29,59052.83235529466
108,1401897.8211611738
145,223217.911875355
160,0.0
175,565336.2453403532
190,0.0
205,268008.26551532259
220,0.0
238,1604366.4434850096
253,572113.5888166594
268,0.0
889,4092546.2098462365
2,2, 1, 2, 0,20, 0.00,60.00,Tuesday
17,6003805.005522866
29,78335.3898590643
108,1419315.406661243
145,223217.911875355
160,0.0
175,289916.02325146328
190,0.0
205,257287.9348947098
220,0.0
238,1513553.2485707643
253,800959.0243433232
268,0.0
889,5496308.618488637
2,2, 1, 2, 0,21, 0.00,60.00,Tuesday
17,4586243.636237142
29,109669.54580268997
108,1178333.499178719
145,227594.73367683232
160,0.0
175,169117.68023001997
190,0.0
205,251927.7695844031
220,0.0
238,1422740.0536565174
253,988939.2035259396
268,0.0
889,7199694.115369954
2,2, 1, 2, 0,22, 0.00,60.00,Tuesday
17,4242209.17078612
29,126541.78361848845
108,889031.5687130868
145,236348.3772797876
160,0.0
175,120798.34302144323
190,0.0
205,246567.6042740967
220,0.0
238,1362197.923713687
253,937176.5454901469
268,0.0
889,7531886.743025129
2,2, 1, 2, 0,23, 0.00,60.00,Tuesday
17,3486861.527601995
29,109669.54580268997
108,768431.1964658087
145,192580.15926501208
160,0.0
175,77310.93953372377
190,0.0
205,235847.27365348399
220,0.0
238,1210842.5988566115
253,566664.8879707868
268,0.0
889,7635142.176830074
2,2, 1, 2, 0,24, 0.00,60.00,Tuesday
17,6942505.2115051
29,75925.07017109303
108,357012.38548524
145,105043.723235461
160,0.0
175,53151.2709294349
190,0.0
205,219766.7777225645
220,0.0
238,1089758.3389709492
253,245191.53806428289
268,0.0
889,9401233.53009785
2,3, 1, 3, 0, 1, 0.00,60.00,Wednesday
17,1759118.1340563226
29,55437.35282333784
108,177271.88606911564
145,43768.218014775535
160,0.0
175,33823.53604600406
190,0.0
205,214406.6124122581
220,0.0
238,1059487.2739995344
253,100800.96564864912
268,0.0
889,10690125.32085263
2,3, 1, 3, 0, 2, 0.00,60.00,Wednesday
17,1886309.319669457
29,55437.35282333784
108,106363.13164146894
145,26260.930808865287
160,0.0
175,33823.53604600406
190,0.0
205,209046.44710195173
220,0.0
238,998945.1440567039
253,49038.30761285648
268,0.0
889,11931347.19947629
2,3, 1, 3, 0, 3, 0.00,60.00,Wednesday
17,1785446.7047658172
29,55437.35282333784
108,70908.75442764597
145,17507.28720591018
160,0.0
175,19327.734883430905
190,0.0
205,203686.28179164505
220,0.0
238,968674.0790852889
253,24519.15380642829
268,0.0
889,12875362.774020305
2,3, 1, 3, 0, 4, 0.00,60.00,Wednesday
17,2903102.7862428959
29,55437.35282333784
108,70908.75442764597
145,8753.643602955108
160,0.0
175,19327.734883430905
190,0.0
205,198326.11648133864
220,0.0
238,938403.0141138737
253,19070.452960555278
268,0.0
889,13960882.697749168
2,3, 1, 3, 0, 5, 0.00,60.00,Wednesday
17,1756193.0633679822
29,55437.35282333784
108,78834.5780400541
145,17507.28720591018
160,0.0
175,33823.53604600406
190,0.0
205,192965.95117103228
220,0.0
238,968674.0790852889
253,29967.854652301197
268,0.0
889,14638982.567387669
2,3, 1, 3, 0, 6, 0.00,60.00,Wednesday
17,2046972.4616618553
29,44590.91422746733
108,216312.83365792936
145,26260.930808865287
160,0.0
175,53151.2709294349
190,0.0
205,192965.95117103228
220,0.0
238,998945.1440567039
253,49038.30761285648
268,0.0
889,14991000.983959804
2,3, 1, 3, 0, 7, 0.00,60.00,Wednesday
17,2595815.3807790686
29,42180.59453949619
108,507842.8209344053
145,70029.14882364079
160,0.0
175,120798.34302144323
190,0.0
205,203686.28179164505
220,0.0
238,1120029.4039423646
253,79006.16226515768
268,0.0
889,14284521.927447925
2,3, 1, 3, 0, 8, 0.00,60.00,Wednesday
17,3070139.6662789208
29,40975.43469551049
108,642661.9982612429
145,140058.29764728159
160,0.0
175,202941.21627602424
190,0.0
205,214406.6124122581
220,0.0
238,1271384.7287994417
253,108974.01691745919
268,0.0
889,14100601.34147753
2,3, 1, 3, 0, 9, 0.00,60.00,Wednesday
17,3186472.8549389045
29,39770.274851524926
108,682969.2057954291
145,210087.44647092239
160,0.0
175,222268.95115945536
190,0.0
205,219766.7777225645
220,0.0
238,1301655.7937708568
253,133493.17072388737
268,0.0
889,10308285.877574539
2,3, 1, 3, 0,10, 0.00,60.00,Wednesday
17,14812188.520869185
29,33744.47563159696
108,702044.5836155546
145,297623.88250047308
160,0.0
175,231932.81860117054
190,0.0
205,219766.7777225645
220,0.0
238,1301655.7937708568
253,158012.32453031557
268,0.0
889,7885335.661506655
2,3, 1, 3, 0,11, 0.00,60.00,Wednesday
17,11779856.036710866
29,26513.51656768328
108,682956.4748524042
145,341392.10051524869
160,0.0
175,202941.21627602424
190,0.0
205,214406.6124122581
220,0.0
238,1301655.7937708568
253,177082.77749087104
268,0.0
889,4482674.995920607
2,3, 1, 3, 0,12, 0.00,60.00,Wednesday
17,3004790.9749472734
29,18077.397659784045
108,656510.4177223966
145,354522.5659196813
160,0.0
175,241596.68604288577
190,0.0
205,214406.6124122581
220,0.0
238,1331926.858742272
253,196153.23045142654
268,0.0
889,2208086.701823173
2,3, 1, 3, 0,13, 0.00,60.00,Wednesday
17,3224575.0708237469
29,14461.918127827212
108,637422.3089592449
145,323884.81330933838
160,0.0
175,275420.22208889006
190,0.0
205,225126.94303287086
220,0.0
238,1362197.923713687
253,207050.63214317195
268,0.0
889,1498340.4095569116
2,3, 1, 3, 0,14, 0.00,60.00,Wednesday
17,3204386.997225646
29,13256.75828384164
108,631805.352995919
145,293247.0606989958
160,0.0
175,222268.95115945536
190,0.0
205,225126.94303287086
220,0.0
238,1362197.923713687
253,234294.1363725365
268,0.0
889,2213694.9933652889
2,3, 1, 3, 0,15, 0.00,60.00,Wednesday
17,3192193.007069923
29,13256.75828384164
108,641650.1144130287
145,249478.84268422027
160,0.0
175,275420.22208889006
190,0.0
205,225126.94303287086
220,0.0
238,1331926.858742272
253,247915.8884872192
268,0.0
889,1438584.9962979155
2,3, 1, 3, 0,16, 0.00,60.00,Wednesday
17,3341742.894186278
29,14461.918127827212
108,701717.8676761182
145,266986.12989013016
160,0.0
175,212605.08371773945
190,0.0
205,219766.7777225645
220,0.0
238,1392468.988685102
253,277883.7431395201
268,0.0
889,3979961.10342319
2,3, 1, 3, 0,17, 0.00,60.00,Wednesday
17,3916882.8842718049
29,22898.037035726447
108,861763.5565792262
145,240725.19908126497
160,0.0
175,444537.90231891
190,0.0
205,235847.27365348399
220,0.0
238,1453011.118627934
253,345992.50371293208
268,0.0
889,6931646.079252283
2,3, 1, 3, 0,18, 0.00,60.00,Wednesday
17,5904731.463953032
29,44590.91422746733
108,1142849.1953402723
145,236348.3772797876
160,0.0
175,724790.058128658
190,0.0
205,257287.9348947098
220,0.0
238,1574095.3785135945
253,424998.6659780903
268,0.0
889,9146425.509983402
2,3, 1, 3, 0,19, 0.00,60.00,Wednesday
17,6169769.053039818
29,59052.83235529466
108,1401897.8211611738
145,223217.911875355
160,0.0
175,565336.2453403532
190,0.0
205,268008.26551532259
220,0.0
238,1604366.4434850096
253,572113.5888166594
268,0.0
889,9627889.340580486
2,3, 1, 3, 0,20, 0.00,60.00,Wednesday
17,11065855.335063253
29,78335.3898590643
108,1419315.406661243
145,223217.911875355
160,0.0
175,289916.02325146328
190,1998909.4202885377
205,257287.9348947098
220,0.0
238,1513553.2485707643
253,800959.0243433232
268,0.0
889,10928461.310615167
2,3, 1, 3, 0,21, 0.00,60.00,Wednesday
17,4528349.905685654
29,109669.54580268997
108,1178333.499178719
145,227594.73367683232
160,0.0
175,169117.68023001997
190,0.0
205,251927.7695844031
220,0.0
238,1422740.0536565174
253,988939.2035259396
268,0.0
889,13263821.49492036
2,3, 1, 3, 0,22, 0.00,60.00,Wednesday
17,4388267.8728496399
29,126541.78361848845
108,889031.5687130868
145,236348.3772797876
160,0.0
175,120798.34302144323
190,0.0
205,246567.6042740967
220,0.0
238,1362197.923713687
253,937176.5454901469
268,0.0
889,15337743.834742338
2,3, 1, 3, 0,23, 0.00,60.00,Wednesday
17,3681565.113863624
29,109669.54580268997
108,768431.1964658087
145,192580.15926501208
160,0.0
175,77310.93953372377
190,0.0
205,235847.27365348399
220,0.0
238,1210842.5988566115
253,566664.8879707868
268,0.0
889,17851204.568229088
2,3, 1, 3, 0,24, 0.00,60.00,Wednesday
17,3868025.188855018
29,75925.07017109303
108,357012.38548524
145,105043.723235461
160,0.0
175,53151.2709294349
190,0.0
205,219766.7777225645
220,0.0
238,1089758.3389709492
253,245191.53806428289
268,0.0
889,20046781.437740275
2,4, 1, 4, 0, 1, 0.00,60.00,Thursday
17,2201426.0377078505
29,55437.35282333784
108,177271.88606911564
145,43768.218014775535
160,0.0
175,33823.53604600406
190,0.0
205,214406.6124122581
220,0.0
238,1059487.2739995344
253,100800.96564864912
268,0.0
889,21899576.631933243
2,4, 1, 4, 0, 2, 0.00,60.00,Thursday
17,2134798.134424367
29,55437.35282333784
108,106363.13164146894
145,26260.930808865287
160,0.0
175,33823.53604600406
190,0.0
205,209046.44710195173
220,0.0
238,998945.1440567039
253,49038.30761285648
268,0.0
889,24969510.922304647
2,4, 1, 4, 0, 3, 0.00,60.00,Thursday
17,2040492.6935983818
29,55437.35282333784
108,70908.75442764597
145,17507.28720591018
160,0.0
175,19327.734883430905
190,0.0
205,203686.28179164505
220,0.0
238,968674.0790852889
253,24519.15380642829
268,0.0
889,26257580.24940034
2,4, 1, 4, 0, 4, 0.00,60.00,Thursday
17,1990629.4039547137
29,55437.35282333784
108,70908.75442764597
145,8753.643602955108
160,0.0
175,19327.734883430905
190,0.0
205,198326.11648133864
220,0.0
238,938403.0141138737
253,19070.452960555278
268,0.0
889,26256021.113216945
2,4, 1, 4, 0, 5, 0.00,60.00,Thursday
17,3221084.6839122485
29,55437.35282333784
108,78834.5780400541
145,17507.28720591018
160,0.0
175,33823.53604600406
190,0.0
205,192965.95117103228
220,0.0
238,968674.0790852889
253,29967.854652301197
268,0.0
889,26301980.63583415
2,4, 1, 4, 0, 6, 0.00,60.00,Thursday
17,2173998.270247671
29,44590.91422746733
108,216312.83365792936
145,26260.930808865287
160,0.0
175,53151.2709294349
190,0.0
205,192965.95117103228
220,0.0
238,998945.1440567039
253,49038.30761285648
268,0.0
889,25912256.384882209
2,4, 1, 4, 0, 7, 0.00,60.00,Thursday
17,2794135.1712438568
29,42180.59453949619
108,507842.8209344053
145,70029.14882364079
160,0.0
175,120798.34302144323
190,0.0
205,203686.28179164505
220,0.0
238,1120029.4039423646
253,79006.16226515768
268,0.0
889,24690325.907426966
2,4, 1, 4, 0, 8, 0.00,60.00,Thursday
17,4394448.625458353
29,40975.43469551049
108,642661.9982612429
145,140058.29764728159
160,0.0
175,202941.21627602424
190,0.0
205,214406.6124122581
220,0.0
238,1271384.7287994417
253,108974.01691745919
268,0.0
889,21839112.66359026
2,4, 1, 4, 0, 9, 0.00,60.00,Thursday
17,12733777.86923741
29,39770.274851524926
108,682969.2057954291
145,210087.44647092239
160,0.0
175,222268.95115945536
190,0.0
205,219766.7777225645
220,0.0
238,1301655.7937708568
253,133493.17072388737
268,0.0
889,19056309.20561677
2,4, 1, 4, 0,10, 0.00,60.00,Thursday
17,5213273.191430772
29,33744.47563159696
108,702044.5836155546
145,297623.88250047308
160,0.0
175,231932.81860117054
190,0.0
205,219766.7777225645
220,0.0
238,1301655.7937708568
253,158012.32453031557
268,0.0
889,14269626.522585009
2,4, 1, 4, 0,11, 0.00,60.00,Thursday
17,3170097.9714972276
29,26513.51656768328
108,682956.4748524042
145,341392.10051524869
160,0.0
175,202941.21627602424
190,0.0
205,214406.6124122581
220,0.0
238,1301655.7937708568
253,177082.77749087104
268,0.0
889,11331451.83245779
2,4, 1, 4, 0,12, 0.00,60.00,Thursday
17,8555872.410682219
29,18077.397659784045
108,656510.4177223966
145,354522.5659196813
160,0.0
175,241596.68604288577
190,0.0
205,214406.6124122581
220,0.0
238,1331926.858742272
253,196153.23045142654
268,0.0
889,10136085.991591609
2,4, 1, 4, 0,13, 0.00,60.00,Thursday
17,3625121.353374378
29,14461.918127827212
108,637422.3089592449
145,323884.81330933838
160,0.0
175,275420.22208889006
190,0.0
205,225126.94303287086
220,0.0
238,1362197.923713687
253,207050.63214317195
268,0.0
889,7850690.367437059
2,4, 1, 4, 0,14, 0.00,60.00,Thursday
17,3246237.907033263
29,13256.75828384164
108,631805.352995919
145,293247.0606989958
160,0.0
175,222268.95115945536
190,0.0
205,225126.94303287086
220,0.0
238,1362197.923713687
253,234294.1363725365
268,0.0
889,6645087.145334734
2,4, 1, 4, 0,15, 0.00,60.00,Thursday
17,3088023.84144129
29,13256.75828384164
108,641650.1144130287
145,249478.84268422027
160,0.0
175,275420.22208889006
190,0.0
205,225126.94303287086
220,0.0
238,1331926.858742272
253,247915.8884872192
268,0.0
889,5417415.330161167
2,4, 1, 4, 0,16, 0.00,60.00,Thursday
17,4364893.356917133
29,14461.918127827212
108,701717.8676761182
145,266986.12989013016
160,0.0
175,212605.08371773945
190,0.0
205,219766.7777225645
220,0.0
238,1392468.988685102
253,277883.7431395201
268,0.0
889,6194258.5597253539
2,4, 1, 4, 0,17, 0.00,60.00,Thursday
17,3814963.4873985687
29,22898.037035726447
108,861763.5565792262
145,240725.19908126497
160,0.0
175,444537.90231891
190,0.0
205,235847.27365348399
220,0.0
238,1453011.118627934
253,345992.50371293208
268,0.0
889,5834159.0009291269
2,4, 1, 4, 0,18, 0.00,60.00,Thursday
17,4954073.975540715
29,44590.91422746733
108,1142849.1953402723
145,236348.3772797876
160,0.0
175,724790.058128658
190,0.0
205,257287.9348947098
220,0.0
238,1574095.3785135945
253,424998.6659780903
268,0.0
889,5827269.358431841
2,4, 1, 4, 0,19, 0.00,60.00,Thursday
17,5854580.794465306
29,59052.83235529466
108,1401897.8211611738
145,223217.911875355
160,0.0
175,565336.2453403532
190,0.0
205,268008.26551532259
220,0.0
238,1604366.4434850096
253,572113.5888166594
268,0.0
889,6124285.951635024
2,4, 1, 4, 0,20, 0.00,60.00,Thursday
17,6911805.63487878
29,78335.3898590643
108,1419315.406661243
145,223217.911875355
160,0.0
175,289916.02325146328
190,0.0
205,257287.9348947098
220,0.0
238,1513553.2485707643
253,800959.0243433232
268,0.0
889,5776985.7562176459
2,4, 1, 4, 0,21, 0.00,60.00,Thursday
17,4904564.894358415
29,109669.54580268997
108,1178333.499178719
145,227594.73367683232
160,0.0
175,169117.68023001997
190,0.0
205,251927.7695844031
220,0.0
238,1422740.0536565174
253,988939.2035259396
268,0.0
889,6395994.496508811
2,4, 1, 4, 0,22, 0.00,60.00,Thursday
17,4198611.74043249
29,126541.78361848845
108,889031.5687130868
145,236348.3772797876
160,0.0
175,120798.34302144323
190,0.0
205,246567.6042740967
220,0.0
238,1362197.923713687
253,937176.5454901469
268,0.0
889,6712067.838074392
2,4, 1, 4, 0,23, 0.00,60.00,Thursday
17,4685558.305378281
29,109669.54580268997
108,768431.1964658087
145,192580.15926501208
160,0.0
175,77310.93953372377
190,0.0
205,235847.27365348399
220,0.0
238,1210842.5988566115
253,566664.8879707868
268,0.0
889,7552437.616343524
2,4, 1, 4, 0,24, 0.00,60.00,Thursday
17,2195519.3034954129
29,75925.07017109303
108,357012.38548524
145,105043.723235461
160,0.0
175,53151.2709294349
190,0.0
205,219766.7777225645
220,0.0
238,1089758.3389709492
253,245191.53806428289
268,0.0
889,7000355.7393615669
2,5, 1, 5, 0, 1, 0.00,60.00,Friday
17,2030604.9872108876
29,55437.35282333784
108,177271.88606911564
145,43768.218014775535
160,0.0
175,33823.53604600406
190,0.0
205,214406.6124122581
220,0.0
238,1059487.2739995344
253,100800.96564864912
268,0.0
889,8689482.108456778
2,5, 1, 5, 0, 2, 0.00,60.00,Friday
17,1618444.095920445
29,55437.35282333784
108,106363.13164146894
145,26260.930808865287
160,0.0
175,33823.53604600406
190,0.0
205,209046.44710195173
220,0.0
238,998945.1440567039
253,49038.30761285648
268,0.0
889,7321074.604661518
2,5, 1, 5, 0, 3, 0.00,60.00,Friday
17,1496261.4262922304
29,55437.35282333784
108,70908.75442764597
145,17507.28720591018
160,0.0
175,19327.734883430905
190,0.0
205,203686.28179164505
220,0.0
238,968674.0790852889
253,24519.15380642829
268,0.0
889,7146430.716191735
2,5, 1, 5, 0, 4, 0.00,60.00,Friday
17,1631667.0545514017
29,55437.35282333784
108,70908.75442764597
145,8753.643602955108
160,0.0
175,19327.734883430905
190,0.0
205,198326.11648133864
220,0.0
238,938403.0141138737
253,19070.452960555278
268,0.0
889,7421330.761187664
2,5, 1, 5, 0, 5, 0.00,60.00,Friday
17,1694130.6758329829
29,55437.35282333784
108,78834.5780400541
145,17507.28720591018
160,0.0
175,33823.53604600406
190,0.0
205,192965.95117103228
220,0.0
238,968674.0790852889
253,29967.854652301197
268,0.0
889,7184169.873452455
2,5, 1, 5, 0, 6, 0.00,60.00,Friday