Program Version,EnergyPlus, Version 9.2.0-921312fa1d, YMD=2019.12.03 16:44
1,5,Environment Title[],Latitude[deg],Longitude[deg],Time Zone[],Elevation[m]
2,8,Day of Simulation[],Month[],Day of Month[],DST Indicator[1=yes 0=no],Hour[],StartMinute[],EndMinute[],DayType
3,5,Cumulative Day of Simulation[],Month[],Day of Month[],DST Indicator[1=yes 0=no],DayType  ! When Daily Meters Requested
4,2,Cumulative Days of Simulation[],Month[]  ! When Monthly Meters Requested
5,1,Cumulative Days of Simulation[] ! When Run Period Meters Requested
6,1,Calendar Year of Simulation[] ! When Annual Meters Requested
174,11,cooking range:InteriorEquipment:Electricity [J] !RunPeriod [Value,Min,Month,Day,Hour,Minute,Max,Month,Day,Hour,Minute]
107,11,interior lighting:InteriorLights:Electricity [J] !RunPeriod [Value,Min,Month,Day,Hour,Minute,Max,Month,Day,Hour,Minute]
279,11,misc tv:InteriorEquipment:Electricity [J] !RunPeriod [Value,Min,Month,Day,Hour,Minute,Max,Month,Day,Hour,Minute]
770,1,Gas:Facility [J] !Hourly
264,11,misc plug loads:InteriorEquipment:Electricity [J] !RunPeriod [Value,Min,Month,Day,Hour,Minute,Max,Month,Day,Hour,Minute]
698,11,Cooling:DistrictCooling [J] !RunPeriod [Value,Min,Month,Day,Hour,Minute,Max,Month,Day,Hour,Minute]
144,11,clothes dryer:InteriorEquipment:Electricity [J] !RunPeriod [Value,Min,Month,Day,Hour,Minute,Max,Month,Day,Hour,Minute]
159,11,clothes washer:InteriorEquipment:Electricity [J] !RunPeriod [Value,Min,Month,Day,Hour,Minute,Max,Month,Day,Hour,Minute]
189,11,dishwasher:InteriorEquipment:Electricity [J] !RunPeriod [Value,Min,Month,Day,Hour,Minute,Max,Month,Day,Hour,Minute]
774,11,Gas:Facility [J] !RunPeriod [Value,Min,Month,Day,Hour,Minute,Max,Month,Day,Hour,Minute]
16,11,Electricity:Facility [J] !RunPeriod [Value,Min,Month,Day,Hour,Minute,Max,Month,Day,Hour,Minute]
570,11,Heating:EnergyTransfer:Zone:LIVING [J] !RunPeriod [Value,Min,Month,Day,Hour,Minute,Max,Month,Day,Hour,Minute]
661,11,Heating:DistrictHeating [J] !RunPeriod [Value,Min,Month,Day,Hour,Minute,Max,Month,Day,Hour,Minute]
120,11,InteriorEquipment:Electricity [J] !RunPeriod [Value,Min,Month,Day,Hour,Minute,Max,Month,Day,Hour,Minute]
28,11,ExteriorLights:Electricity [J] !RunPeriod [Value,Min,Month,Day,Hour,Minute,Max,Month,Day,Hour,Minute]
234,11,mech vent house fan:InteriorEquipment:Electricity [J] !RunPeriod [Value,Min,Month,Day,Hour,Minute,Max,Month,Day,Hour,Minute]
12,1,Electricity:Facility [J] !Hourly
204,11,fridge:InteriorEquipment:Electricity [J] !RunPeriod [Value,Min,Month,Day,Hour,Minute,Max,Month,Day,Hour,Minute]
583,11,Cooling:EnergyTransfer:Zone:LIVING [J] !RunPeriod [Value,Min,Month,Day,Hour,Minute,Max,Month,Day,Hour,Minute]
End of Data Dictionary
1,RUN PERIOD 1,  39.83,-104.65,  -7.00,1650.00
2,1, 1, 1, 0, 1, 0.00,60.00,Monday
12,2281624.053437136
770,2185862.1611074188
2,1, 1, 1, 0, 2, 0.00,60.00,Monday
12,2089399.105583841
770,4598840.562861402
2,1, 1, 1, 0, 3, 0.00,60.00,Monday
12,2037126.3586937527
770,6029098.678839123
2,1, 1, 1, 0, 4, 0.00,60.00,Monday
12,1997355.912002009
770,7341788.954701317
2,1, 1, 1, 0, 5, 0.00,60.00,Monday
12,1938048.3544848683
770,8126276.261095218
2,1, 1, 1, 0, 6, 0.00,60.00,Monday
12,2241936.192053673
770,8220736.550119467
2,1, 1, 1, 0, 7, 0.00,60.00,Monday
12,3004850.0259187549
770,8147720.470576988
2,1, 1, 1, 0, 8, 0.00,60.00,Monday
12,3560124.487720084
770,7807353.256240419
2,1, 1, 1, 0, 9, 0.00,60.00,Monday
12,10663408.35998435
770,7210400.122120032
2,1, 1, 1, 0,10, 0.00,60.00,Monday
12,2662599.5566522504
770,4986333.861326554
2,1, 1, 1, 0,11, 0.00,60.00,Monday
12,3137317.1660667208
770,2949857.0339253309
2,1, 1, 1, 0,12, 0.00,60.00,Monday
12,3200723.192661169
770,2054221.9092253564
2,1, 1, 1, 0,13, 0.00,60.00,Monday
12,4312880.807844149
770,2169285.74809239
2,1, 1, 1, 0,14, 0.00,60.00,Monday
12,3053364.7232837795
770,2532975.5740184874
2,1, 1, 1, 0,15, 0.00,60.00,Monday
12,4369259.536516542
770,2164330.410650199
2,1, 1, 1, 0,16, 0.00,60.00,Monday
12,4664482.311298191
770,2211469.670408237
2,1, 1, 1, 0,17, 0.00,60.00,Monday
12,3828123.2213790689
770,3019386.467485797
2,1, 1, 1, 0,18, 0.00,60.00,Monday
12,6283924.546596605
770,4420590.37439999
2,1, 1, 1, 0,19, 0.00,60.00,Monday
12,13325563.884447843
770,5790672.276496597
2,1, 1, 1, 0,20, 0.00,60.00,Monday
12,5787293.986413281
770,6071036.7666459749
2,1, 1, 1, 0,21, 0.00,60.00,Monday
12,5168793.716301868
770,6085756.09818378
2,1, 1, 1, 0,22, 0.00,60.00,Monday
12,4822095.788897581
770,6623965.816120368
2,1, 1, 1, 0,23, 0.00,60.00,Monday
12,5309534.438701916
770,7532661.157544766
2,1, 1, 1, 0,24, 0.00,60.00,Monday
12,3090186.9462028706
770,9577365.272239935
2,2, 1, 2, 0, 1, 0.00,60.00,Tuesday
12,2439141.2582554335
770,10450761.760748899
2,2, 1, 2, 0, 2, 0.00,60.00,Tuesday
12,2202528.111474879
770,10534699.293818729
2,2, 1, 2, 0, 3, 0.00,60.00,Tuesday
12,2125663.293648675
770,10674615.840640754
2,2, 1, 2, 0, 4, 0.00,60.00,Tuesday
12,2076203.2935509908
770,11478896.980130557
2,2, 1, 2, 0, 5, 0.00,60.00,Tuesday
12,1985867.1474309534
770,10635319.785142873
2,2, 1, 2, 0, 6, 0.00,60.00,Tuesday
12,2289753.3716404906
770,10729695.421494572
2,2, 1, 2, 0, 7, 0.00,60.00,Tuesday
12,3041038.3171263618
770,10046513.645954108
2,2, 1, 2, 0, 8, 0.00,60.00,Tuesday
12,4758703.645141604
770,9030726.821477578
2,2, 1, 2, 0, 9, 0.00,60.00,Tuesday
12,3239916.594668505
770,8484139.04098597
2,2, 1, 2, 0,10, 0.00,60.00,Tuesday
12,4344565.833871823
770,6263549.317391698
2,2, 1, 2, 0,11, 0.00,60.00,Tuesday
12,4265091.024719633
770,3774613.410455078
2,2, 1, 2, 0,12, 0.00,60.00,Tuesday
12,3122366.2159277128
770,2329527.8839131088
2,2, 1, 2, 0,13, 0.00,60.00,Tuesday
12,4259464.403630536
770,1690556.0464841568
2,2, 1, 2, 0,14, 0.00,60.00,Tuesday
12,3037159.523525541
770,1520537.9151476213
2,2, 1, 2, 0,15, 0.00,60.00,Tuesday
12,2995167.211283359
770,899367.867761264
2,2, 1, 2, 0,16, 0.00,60.00,Tuesday
12,4431884.673047682
770,1365185.1562477856
2,2, 1, 2, 0,17, 0.00,60.00,Tuesday
12,3808305.052108898
770,1815968.8122715816
2,2, 1, 2, 0,18, 0.00,60.00,Tuesday
12,5019674.43805945
770,2194837.686566611
2,2, 1, 2, 0,19, 0.00,60.00,Tuesday
12,5513134.015557402
770,3139525.5815804207
2,2, 1, 2, 0,20, 0.00,60.00,Tuesday
12,6545891.84830844
770,3789315.5129437216
2,2, 1, 2, 0,21, 0.00,60.00,Tuesday
12,5125756.040629922
770,4759533.277138986
2,2, 1, 2, 0,22, 0.00,60.00,Tuesday
12,4786242.939445678
770,4742773.209745332
2,2, 1, 2, 0,23, 0.00,60.00,Tuesday
12,4114606.9651717615
770,4659776.24019163
2,2, 1, 2, 0,24, 0.00,60.00,Tuesday
12,7535242.139731219
770,5800151.96587913
2,3, 1, 3, 0, 1, 0.00,60.00,Wednesday
12,2057090.4529217149
770,6650164.004456936
2,3, 1, 3, 0, 2, 0.00,60.00,Wednesday
12,2144616.3098831076
770,7496077.4090380719
2,3, 1, 3, 0, 3, 0.00,60.00,Wednesday
12,2076691.617049162
770,8105080.717236432
2,3, 1, 3, 0, 4, 0.00,60.00,Wednesday
12,3173060.167413827
770,8858288.448124895
2,3, 1, 3, 0, 5, 0.00,60.00,Wednesday
12,1882792.74395351
770,9425437.272882525
2,3, 1, 3, 0, 6, 0.00,60.00,Wednesday
12,2270568.3411818726
770,9723060.30033782
2,3, 1, 3, 0, 7, 0.00,60.00,Wednesday
12,3023915.7724623025
770,9148096.786017606
2,3, 1, 3, 0, 8, 0.00,60.00,Wednesday
12,3584902.9226802585
770,9107473.312448396
2,3, 1, 3, 0, 9, 0.00,60.00,Wednesday
12,3297217.7155767127
770,7188108.888656167
2,3, 1, 3, 0,10, 0.00,60.00,Wednesday
12,14650889.598104243
770,6482124.324941519
2,3, 1, 3, 0,11, 0.00,60.00,Wednesday
12,11743395.77120404
770,4574788.493286782
2,3, 1, 3, 0,12, 0.00,60.00,Wednesday
12,2997329.756215579
770,3734059.681353347
2,3, 1, 3, 0,13, 0.00,60.00,Wednesday
12,3115127.170599125
770,3786577.194032765
2,3, 1, 3, 0,14, 0.00,60.00,Wednesday
12,3175051.278987028
770,4527103.837731324
2,3, 1, 3, 0,15, 0.00,60.00,Wednesday
12,3230895.7142578077
770,3823432.464091845
2,3, 1, 3, 0,16, 0.00,60.00,Wednesday
12,3329297.907083638
770,4927231.093777382
2,3, 1, 3, 0,17, 0.00,60.00,Wednesday
12,3968727.1672628128
770,5948211.645535958
2,3, 1, 3, 0,18, 0.00,60.00,Wednesday
12,6249327.4771006819
770,6612790.813898087
2,3, 1, 3, 0,19, 0.00,60.00,Wednesday
12,6690821.128455007
770,6571317.190902627
2,3, 1, 3, 0,20, 0.00,60.00,Wednesday
12,14597739.1041075
770,6855490.815177379
2,3, 1, 3, 0,21, 0.00,60.00,Wednesday
12,5448125.902789622
770,8406887.381126885
2,3, 1, 3, 0,22, 0.00,60.00,Wednesday
12,4839707.523653548
770,9622506.565809627
2,3, 1, 3, 0,23, 0.00,60.00,Wednesday
12,4238210.171772194
770,11145214.411372643
2,3, 1, 3, 0,24, 0.00,60.00,Wednesday
12,4386778.198659066
770,12564254.650441012
2,4, 1, 4, 0, 1, 0.00,60.00,Thursday
12,2423843.1113550688
770,13895211.760525598
2,4, 1, 4, 0, 2, 0.00,60.00,Thursday
12,2305920.430010404
770,15959675.778489072
2,4, 1, 4, 0, 3, 0.00,60.00,Thursday
12,2242992.0573877815
770,16830835.115686768
2,4, 1, 4, 0, 4, 0.00,60.00,Thursday
12,2179448.9336667356
770,16896177.274316085
2,4, 1, 4, 0, 5, 0.00,60.00,Thursday
12,3271450.0199162478
770,17088489.25920551
2,4, 1, 4, 0, 6, 0.00,60.00,Thursday
12,2326379.361400754
770,16907684.354477183
2,4, 1, 4, 0, 7, 0.00,60.00,Thursday
12,3156805.7533436946
770,16120810.344831353
2,4, 1, 4, 0, 8, 0.00,60.00,Thursday
12,4864460.733184844
770,14497881.731959984
2,4, 1, 4, 0, 9, 0.00,60.00,Thursday
12,12793920.386912525
770,13498908.476572007
2,4, 1, 4, 0,10, 0.00,60.00,Thursday
12,5017609.813265266
770,10934131.492855812
2,4, 1, 4, 0,11, 0.00,60.00,Thursday
12,3083760.272083466
770,9215386.841159657
2,4, 1, 4, 0,12, 0.00,60.00,Thursday
12,8495418.096515529
770,8675473.178988932
2,4, 1, 4, 0,13, 0.00,60.00,Thursday
12,3462104.538510317
770,7301062.1510689449
2,4, 1, 4, 0,14, 0.00,60.00,Thursday
12,3170553.6651359286
770,6529355.9395611989
2,4, 1, 4, 0,15, 0.00,60.00,Thursday
12,3086569.382572666
770,5695223.468213107
2,4, 1, 4, 0,16, 0.00,60.00,Thursday
12,4335256.848163816
770,6239492.662713741
2,4, 1, 4, 0,17, 0.00,60.00,Thursday
12,3882227.6337168735
770,5659802.028807889
2,4, 1, 4, 0,18, 0.00,60.00,Thursday
12,5334434.44199446
770,5175423.552825086
2,4, 1, 4, 0,19, 0.00,60.00,Thursday
12,6411090.09740031
770,4922677.425802266
2,4, 1, 4, 0,20, 0.00,60.00,Thursday
12,7462129.388363736
770,4503025.266546643
2,4, 1, 4, 0,21, 0.00,60.00,Thursday
12,5459131.83145827
770,4745386.208353489
2,4, 1, 4, 0,22, 0.00,60.00,Thursday
12,4759472.950694683
770,4805909.633121278
2,4, 1, 4, 0,23, 0.00,60.00,Thursday
12,5326802.482965663
770,5285348.433364516
2,4, 1, 4, 0,24, 0.00,60.00,Thursday
12,2818584.5221649
770,4991021.985606119
2,5, 1, 5, 0, 1, 0.00,60.00,Friday
12,2357269.577696045
770,6154969.306471781
2,5, 1, 5, 0, 2, 0.00,60.00,Friday
12,1923098.387628124
770,5317639.444632946
2,5, 1, 5, 0, 3, 0.00,60.00,Friday
12,1841605.2648787436
770,5214709.658886391
2,5, 1, 5, 0, 4, 0.00,60.00,Friday
12,1959675.88331402
770,5364724.580196451
2,5, 1, 5, 0, 5, 0.00,60.00,Friday
12,1882862.1909786878
770,5230668.119786954
2,5, 1, 5, 0, 6, 0.00,60.00,Friday
12,7222535.173940975
770,5099475.702606045
2,5, 1, 5, 0, 7, 0.00,60.00,Friday
12,10559463.325700544
770,6495684.178856764
2,5, 1, 5, 0, 8, 0.00,60.00,Friday
12,3898171.3431212308
770,4180442.2624459054
2,5, 1, 5, 0, 9, 0.00,60.00,Friday
12,3142308.4711179367
770,3220934.712380619
2,5, 1, 5, 0,10, 0.00,60.00,Friday
12,2835907.1650008617
770,1351712.735543635
2,5, 1, 5, 0,11, 0.00,60.00,Friday
12,22995004.12172177
770,1767046.761353302
2,5, 1, 5, 0,12, 0.00,60.00,Friday
12,8742849.240607
770,0.0
2,5, 1, 5, 0,13, 0.00,60.00,Friday
12,3644330.879041183
770,0.0
2,5, 1, 5, 0,14, 0.00,60.00,Friday
12,3987477.1081208435
770,0.0
2,5, 1, 5, 0,15, 0.00,60.00,Friday
12,2896687.954585179
770,0.0
2,5, 1, 5, 0,16, 0.00,60.00,Friday
12,3235391.906166303
770,0.0
2,5, 1, 5, 0,17, 0.00,60.00,Friday
12,3855362.73242889
770,0.0
2,5, 1, 5, 0,18, 0.00,60.00,Friday
12,6717203.7586426739
770,0.0
2,5, 1, 5, 0,19, 0.00,60.00,Friday
12,6027716.632668307
770,653604.446519642
2,5, 1, 5, 0,20, 0.00,60.00,Friday
12,6921030.327719005
770,1265313.3395122837
2,5, 1, 5, 0,21, 0.00,60.00,Friday
12,6405982.779179899
770,2393697.1790415255
2,5, 1, 5, 0,22, 0.00,60.00,Friday
12,7729102.775132004
770,3038299.1901707209
2,5, 1, 5, 0,23, 0.00,60.00,Friday
12,3917528.7414102738
770,3554097.9019735816
2,5, 1, 5, 0,24, 0.00,60.00,Friday
12,4204056.453809582
770,4551269.714830741
2,6, 1, 6, 0, 1, 0.00,60.00,Saturday
12,2263143.8415824596
770,5353499.762303117
2,6, 1, 6, 0, 2, 0.00,60.00,Saturday
12,4379175.746758445
770,5768267.630577939
2,6, 1, 6, 0, 3, 0.00,60.00,Saturday
12,2145013.669969037
770,6191183.389686618
2,6, 1, 6, 0, 4, 0.00,60.00,Saturday
12,1972273.9834076022
770,6988608.9647726169
2,6, 1, 6, 0, 5, 0.00,60.00,Saturday
12,1926439.7093864913
770,7517172.726426525
2,6, 1, 6, 0, 6, 0.00,60.00,Saturday
12,18182393.84097723
770,8615621.914240258
2,6, 1, 6, 0, 7, 0.00,60.00,Saturday
12,2242217.6534137858
770,8361686.074395922
2,6, 1, 6, 0, 8, 0.00,60.00,Saturday
12,3548535.6564632116
770,8462243.584580211
2,6, 1, 6, 0, 9, 0.00,60.00,Saturday
12,3302000.6281226149
770,7439067.45557175
2,6, 1, 6, 0,10, 0.00,60.00,Saturday
12,5628990.124578858
770,6429336.470164705
2,6, 1, 6, 0,11, 0.00,60.00,Saturday
12,3001377.2505595569
770,5029264.0489786169
2,6, 1, 6, 0,12, 0.00,60.00,Saturday
12,5360013.598381672
770,3683842.2187827026
2,6, 1, 6, 0,13, 0.00,60.00,Saturday
12,10068294.262546374
770,3664598.9011554925
2,6, 1, 6, 0,14, 0.00,60.00,Saturday
12,5354432.166623018
770,3630159.205924383
2,6, 1, 6, 0,15, 0.00,60.00,Saturday
12,3049115.2267162299
770,3467484.755489319
2,6, 1, 6, 0,16, 0.00,60.00,Saturday
12,4478512.72894634
770,3570529.6620069656
2,6, 1, 6, 0,17, 0.00,60.00,Saturday
12,3874089.926993549
770,5284520.167941834
2,6, 1, 6, 0,18, 0.00,60.00,Saturday
12,6322347.104774585
770,5177547.756403493
2,6, 1, 6, 0,19, 0.00,60.00,Saturday
12,10621280.684845934
770,5781336.827088824
2,6, 1, 6, 0,20, 0.00,60.00,Saturday
12,6941581.171825608
770,6666979.814246915
2,6, 1, 6, 0,21, 0.00,60.00,Saturday
12,7951266.939585993
770,6915989.805717559
2,6, 1, 6, 0,22, 0.00,60.00,Saturday
12,24960734.01344739
770,8486145.826667587
2,6, 1, 6, 0,23, 0.00,60.00,Saturday
12,3287618.518239385
770,9328715.75330766
2,6, 1, 6, 0,24, 0.00,60.00,Saturday
12,4308162.638487687
770,10797805.848979848
2,7, 1, 7, 0, 1, 0.00,60.00,Sunday
12,2388812.209035909
770,11962838.813235114
2,7, 1, 7, 0, 2, 0.00,60.00,Sunday
12,2233178.963760399
770,12142944.038102273
2,7, 1, 7, 0, 3, 0.00,60.00,Sunday
12,2185124.0209118549
770,13794509.578716794
2,7, 1, 7, 0, 4, 0.00,60.00,Sunday
12,4805113.045897142
770,15026473.641398374
2,7, 1, 7, 0, 5, 0.00,60.00,Sunday
12,12948772.416414913
770,16842516.516888776
2,7, 1, 7, 0, 6, 0.00,60.00,Sunday
12,2450374.710859548
770,16554374.850643339
2,7, 1, 7, 0, 7, 0.00,60.00,Sunday
12,7685669.331469737
770,16694634.64703097
2,7, 1, 7, 0, 8, 0.00,60.00,Sunday
12,4490112.397286326
770,12552395.184856698
2,7, 1, 7, 0, 9, 0.00,60.00,Sunday
12,3300389.2900207357
770,11596754.34674175
2,7, 1, 7, 0,10, 0.00,60.00,Sunday
12,6174589.037264952
770,10831035.871572195
2,7, 1, 7, 0,11, 0.00,60.00,Sunday
12,4020668.7620857276
770,9762494.572691489
2,7, 1, 7, 0,12, 0.00,60.00,Sunday
12,3260873.6587066638
770,8729592.710850798
2,7, 1, 7, 0,13, 0.00,60.00,Sunday
12,4597274.772121976
770,8184698.427498155
2,7, 1, 7, 0,14, 0.00,60.00,Sunday
12,3170263.1399307188
770,8024563.941373395
2,7, 1, 7, 0,15, 0.00,60.00,Sunday
12,3308317.4476411144
770,7885736.984930545
2,7, 1, 7, 0,16, 0.00,60.00,Sunday
12,3385120.768061356
770,7856246.63768445
2,7, 1, 7, 0,17, 0.00,60.00,Sunday
12,9149468.377013213
770,7793827.435106709
2,7, 1, 7, 0,18, 0.00,60.00,Sunday
12,8197930.863634394
770,6882733.733243653
2,7, 1, 7, 0,19, 0.00,60.00,Sunday
12,5329357.691145882
770,6119611.3896449119
2,7, 1, 7, 0,20, 0.00,60.00,Sunday
12,5455418.905820756
770,6202803.66692205
2,7, 1, 7, 0,21, 0.00,60.00,Sunday
12,5247185.703032838
770,6970335.76069388
2,7, 1, 7, 0,22, 0.00,60.00,Sunday
12,6038006.807318686
770,7794613.803392857
2,7, 1, 7, 0,23, 0.00,60.00,Sunday
12,4098408.165938476
770,8179568.195336914
2,7, 1, 7, 0,24, 0.00,60.00,Sunday
12,4311103.929461084
770,7910769.532025172
2,8, 1, 8, 0, 1, 0.00,60.00,Monday
12,2316596.534790746
770,8315648.88908518
2,8, 1, 8, 0, 2, 0.00,60.00,Monday
12,2170469.0576787649
770,8852566.467820179
2,8, 1, 8, 0, 3, 0.00,60.00,Monday
12,2108704.0316296706
770,9784766.391923229
2,8, 1, 8, 0, 4, 0.00,60.00,Monday
12,2092503.798199531
770,12334181.547293112
2,8, 1, 8, 0, 5, 0.00,60.00,Monday
12,2025112.1827869025
770,12694499.77995968
2,8, 1, 8, 0, 6, 0.00,60.00,Monday
12,2307045.0444582679
770,11636986.405445418
2,8, 1, 8, 0, 7, 0.00,60.00,Monday
12,3077805.0172826119
770,11975655.835545777
2,8, 1, 8, 0, 8, 0.00,60.00,Monday
12,4759487.350204546
770,10455709.884100285
2,8, 1, 8, 0, 9, 0.00,60.00,Monday
12,9093790.938029293
770,8070712.643849137
2,8, 1, 8, 0,10, 0.00,60.00,Monday
12,2778320.444911135
770,5545300.583475564
2,8, 1, 8, 0,11, 0.00,60.00,Monday
12,3167347.766508811
770,4525557.27477925
2,8, 1, 8, 0,12, 0.00,60.00,Monday
12,4367654.537298263
770,3434253.4147022499
2,8, 1, 8, 0,13, 0.00,60.00,Monday
12,4049891.322906153
770,1969098.794111699
2,8, 1, 8, 0,14, 0.00,60.00,Monday
12,2835818.933342071
770,564459.0503905588
2,8, 1, 8, 0,15, 0.00,60.00,Monday
12,3165092.454528047
770,370747.18045590518
2,8, 1, 8, 0,16, 0.00,60.00,Monday
12,5800528.806427404
770,0.0
2,8, 1, 8, 0,17, 0.00,60.00,Monday
12,3835451.595796496
770,1520468.8019591668
2,8, 1, 8, 0,18, 0.00,60.00,Monday
12,6255362.63282064
770,3320883.3597986439
2,8, 1, 8, 0,19, 0.00,60.00,Monday
12,12928293.026674435
770,4531870.87936461
2,8, 1, 8, 0,20, 0.00,60.00,Monday
12,4918651.726136148
770,5400450.108940104
2,8, 1, 8, 0,21, 0.00,60.00,Monday
12,5211592.967859844
770,5102791.304069218
2,8, 1, 8, 0,22, 0.00,60.00,Monday
12,5981587.100281388
770,6131121.985286531
2,8, 1, 8, 0,23, 0.00,60.00,Monday
12,4061518.959730983
770,6153513.758425717
2,8, 1, 8, 0,24, 0.00,60.00,Monday
12,3135965.8068937908
770,7805224.199524291
2,9, 1, 9, 0, 1, 0.00,60.00,Tuesday
12,2413658.1267536284
770,9113666.402880939
2,9, 1, 9, 0, 2, 0.00,60.00,Tuesday
12,3315783.5474233676
770,9648484.159769675
2,9, 1, 9, 0, 3, 0.00,60.00,Tuesday
12,2037031.7751262543
770,10161569.881187404
2,9, 1, 9, 0, 4, 0.00,60.00,Tuesday
12,2059797.69955347
770,10618098.393599
2,9, 1, 9, 0, 5, 0.00,60.00,Tuesday
12,1990052.8044003689
770,10854940.458647496
2,9, 1, 9, 0, 6, 0.00,60.00,Tuesday
12,2297320.331191231
770,11126732.437441899
2,9, 1, 9, 0, 7, 0.00,60.00,Tuesday
12,3060184.7454311784
770,11051123.318996378
2,9, 1, 9, 0, 8, 0.00,60.00,Tuesday
12,4768884.819547724
770,9541968.570149014
2,9, 1, 9, 0, 9, 0.00,60.00,Tuesday
12,3224019.6942042058
770,7651633.685633658
2,9, 1, 9, 0,10, 0.00,60.00,Tuesday
12,4342699.093370337
770,6125266.292638031
2,9, 1, 9, 0,11, 0.00,60.00,Tuesday
12,4286560.321357859
770,4876016.599784771
2,9, 1, 9, 0,12, 0.00,60.00,Tuesday
12,3154194.413548353
770,4001494.4837049285
2,9, 1, 9, 0,13, 0.00,60.00,Tuesday
12,4295654.220345172
770,3575117.2977057697
2,9, 1, 9, 0,14, 0.00,60.00,Tuesday
12,3064527.1594516749
770,2957511.471872621
2,9, 1, 9, 0,15, 0.00,60.00,Tuesday
12,3197895.7219154469
770,2091928.7606508972
2,9, 1, 9, 0,16, 0.00,60.00,Tuesday
12,3843844.212003061
770,1968910.306333275
2,9, 1, 9, 0,17, 0.00,60.00,Tuesday
12,4450327.334377037
770,2942708.2292894318
2,9, 1, 9, 0,18, 0.00,60.00,Tuesday
12,5011136.73835581
770,3865531.1590543205
2,9, 1, 9, 0,19, 0.00,60.00,Tuesday
12,5537649.2282333769
770,4425834.411555627
2,9, 1, 9, 0,20, 0.00,60.00,Tuesday
12,5424094.583557513
770,4559222.073208716
2,9, 1, 9, 0,21, 0.00,60.00,Tuesday
12,5224739.132892167
770,5792568.23502606
2,9, 1, 9, 0,22, 0.00,60.00,Tuesday
12,4820265.464930764
770,6527929.044530795
2,9, 1, 9, 0,23, 0.00,60.00,Tuesday
12,5298774.26513534
770,7494718.763568526
2,9, 1, 9, 0,24, 0.00,60.00,Tuesday
12,7537915.591908893
770,9370476.755516267
2,10, 1,10, 0, 1, 0.00,60.00,Wednesday
12,2122235.688524533
770,10117677.140806241
2,10, 1,10, 0, 2, 0.00,60.00,Wednesday
12,2208053.6313329974
770,10824622.333754912
2,10, 1,10, 0, 3, 0.00,60.00,Wednesday
12,2132941.959474053
770,11056526.136315963
2,10, 1,10, 0, 4, 0.00,60.00,Wednesday
12,2089673.1993014513
770,12185660.52873853
2,10, 1,10, 0, 5, 0.00,60.00,Wednesday
12,2025762.2016861905
770,12728606.15549297
2,10, 1,10, 0, 6, 0.00,60.00,Wednesday
12,3464368.4404995024
770,13062902.980593058
2,10, 1,10, 0, 7, 0.00,60.00,Wednesday
12,3006463.733902539
770,12369832.841292633
2,10, 1,10, 0, 8, 0.00,60.00,Wednesday
12,3637608.7743713969
770,11872939.935877547
2,10, 1,10, 0, 9, 0.00,60.00,Wednesday
12,3341423.486702847
770,9507577.803202268
2,10, 1,10, 0,10, 0.00,60.00,Wednesday
12,14902778.317340313
770,7716579.256797356
2,10, 1,10, 0,11, 0.00,60.00,Wednesday
12,11344333.431025953
770,5687891.719078138
2,10, 1,10, 0,12, 0.00,60.00,Wednesday
12,3301905.9164011075
770,3269169.8622861306
2,10, 1,10, 0,13, 0.00,60.00,Wednesday
12,3054871.564016808
770,1669174.4841611712
2,10, 1,10, 0,14, 0.00,60.00,Wednesday
12,3108101.164616414
770,1014243.2959515323
2,10, 1,10, 0,15, 0.00,60.00,Wednesday
12,3163337.138846371
770,278646.08018901207
2,10, 1,10, 0,16, 0.00,60.00,Wednesday
12,3240509.248198441
770,268506.02231950676
2,10, 1,10, 0,17, 0.00,60.00,Wednesday
12,3887069.34287447
770,1663640.1863526686
2,10, 1,10, 0,18, 0.00,60.00,Wednesday
12,6184782.433419386
770,3215548.274815372
2,10, 1,10, 0,19, 0.00,60.00,Wednesday
12,6644907.80307271
770,4118469.780942197
2,10, 1,10, 0,20, 0.00,60.00,Wednesday
12,14729043.504758858
770,4319196.084021824
2,10, 1,10, 0,21, 0.00,60.00,Wednesday
12,5257736.019311517
770,4817910.824135174
2,10, 1,10, 0,22, 0.00,60.00,Wednesday
12,4785215.459943065
770,6362621.158933486
2,10, 1,10, 0,23, 0.00,60.00,Wednesday
12,4164690.670076127
770,7287659.290110837
2,10, 1,10, 0,24, 0.00,60.00,Wednesday
12,4334295.135826744
770,9789655.294267547
2,11, 1,11, 0, 1, 0.00,60.00,Thursday
12,2355135.76197404
770,10291602.253858315
2,11, 1,11, 0, 2, 0.00,60.00,Thursday
12,2215494.249966309
770,11215030.264332906
2,11, 1,11, 0, 3, 0.00,60.00,Thursday
12,2136423.277922547
770,11239190.293443274
2,11, 1,11, 0, 4, 0.00,60.00,Thursday
12,2087221.0446731994
770,12056996.4134206
2,11, 1,11, 0, 5, 0.00,60.00,Thursday
12,3185693.457068485
770,12566309.442105962
2,11, 1,11, 0, 6, 0.00,60.00,Thursday
12,2235671.2238720639
770,12149817.841960783
2,11, 1,11, 0, 7, 0.00,60.00,Thursday
12,3075645.576435464
770,11862350.360035144
2,11, 1,11, 0, 8, 0.00,60.00,Thursday
12,4808472.6739171049
770,11528248.491670082
2,11, 1,11, 0, 9, 0.00,60.00,Thursday
12,12943034.675844996
770,11252105.3498495
2,11, 1,11, 0,10, 0.00,60.00,Thursday
12,4917266.172847953
770,7945397.422094238
2,11, 1,11, 0,11, 0.00,60.00,Thursday
12,3002917.431641198
770,4863792.9326993389
2,11, 1,11, 0,12, 0.00,60.00,Thursday
12,8677695.052655407
770,3333373.302554116
2,11, 1,11, 0,13, 0.00,60.00,Thursday
12,2965569.8213479167
770,2120482.3351188285
2,11, 1,11, 0,14, 0.00,60.00,Thursday
12,2906378.0439273326
770,1387881.9481162322
2,11, 1,11, 0,15, 0.00,60.00,Thursday
12,3007877.471572679
770,1566272.9547180634
2,11, 1,11, 0,16, 0.00,60.00,Thursday
12,4256092.842086932
770,2064661.250086525
2,11, 1,11, 0,17, 0.00,60.00,Thursday
12,3822510.3711694015
770,2527920.8482078567
2,11, 1,11, 0,18, 0.00,60.00,Thursday
12,5977808.933333632
770,2362500.6166542659
2,11, 1,11, 0,19, 0.00,60.00,Thursday
12,5630062.029581772
770,2118736.2732237374
2,11, 1,11, 0,20, 0.00,60.00,Thursday
12,7735036.8875617799
770,2900048.4899827239
2,11, 1,11, 0,21, 0.00,60.00,Thursday
12,5194138.60369283
770,3466025.706526825
2,11, 1,11, 0,22, 0.00,60.00,Thursday
12,4746333.376431316
770,3301023.3572166839
2,11, 1,11, 0,23, 0.00,60.00,Thursday
12,5305968.110038156
770,4143147.1828359889
2,11, 1,11, 0,24, 0.00,60.00,Thursday
12,2998376.0762438217
770,4983505.51443196
2,12, 1,12, 0, 1, 0.00,60.00,Friday
12,2353664.4275683148
770,5965807.723254909
2,12, 1,12, 0, 2, 0.00,60.00,Friday
12,2138564.7487293595
770,7178553.076286537
2,12, 1,12, 0, 3, 0.00,60.00,Friday
12,2074015.068408735
770,7964642.688183004
2,12, 1,12, 0, 4, 0.00,60.00,Friday
12,2038078.832402784
770,9478513.31382668
2,12, 1,12, 0, 5, 0.00,60.00,Friday
12,1982588.5869762125
770,10463294.303729305
2,12, 1,12, 0, 6, 0.00,60.00,Friday
12,7342356.970184775
770,10962877.247575053
2,12, 1,12, 0, 7, 0.00,60.00,Friday
12,10733619.756011248
770,11817045.099323625
2,12, 1,12, 0, 8, 0.00,60.00,Friday
12,4202143.48831897
770,10947585.470912178
2,12, 1,12, 0, 9, 0.00,60.00,Friday
12,3270214.721347231
770,9932572.193534553
2,12, 1,12, 0,10, 0.00,60.00,Friday
12,3162813.4034218958
770,9059856.823749349
2,12, 1,12, 0,11, 0.00,60.00,Friday
12,23361374.888680448
770,8631912.114033517
2,12, 1,12, 0,12, 0.00,60.00,Friday
12,9347434.383388907
770,6839369.495771108
2,12, 1,12, 0,13, 0.00,60.00,Friday
12,3932391.205837709
770,6669646.319486525
2,12, 1,12, 0,14, 0.00,60.00,Friday
12,4290452.881784109
770,6432799.65233035
2,12, 1,12, 0,15, 0.00,60.00,Friday
12,3195550.800158504
770,6238534.123113944
2,12, 1,12, 0,16, 0.00,60.00,Friday
12,3349377.604586714
770,5980809.234943185
2,12, 1,12, 0,17, 0.00,60.00,Friday
12,3987915.861737847
770,6955039.016979605
2,12, 1,12, 0,18, 0.00,60.00,Friday
12,7431767.707799898
770,7114639.535483497
2,12, 1,12, 0,19, 0.00,60.00,Friday
12,5561912.05270181
770,6591265.307712674
2,12, 1,12, 0,20, 0.00,60.00,Friday
12,7056641.088476847
770,6355525.5280290809
2,12, 1,12, 0,21, 0.00,60.00,Friday
12,6500418.39587321
770,7314770.048581836
2,12, 1,12, 0,22, 0.00,60.00,Friday
12,7826038.398877643
770,7985400.603311456
2,12, 1,12, 0,23, 0.00,60.00,Friday
12,4015747.8699681048
770,8717526.451892958
2,12, 1,12, 0,24, 0.00,60.00,Friday
12,4292552.363334596
770,9192125.6046018
2,13, 1,13, 0, 1, 0.00,60.00,Saturday
12,2333862.9981197037
770,9064296.310992891
2,13, 1,13, 0, 2, 0.00,60.00,Saturday
12,4734506.340676332
770,8467224.10280425
2,13, 1,13, 0, 3, 0.00,60.00,Saturday
12,1911074.011411022
770,8828916.96867618
2,13, 1,13, 0, 4, 0.00,60.00,Saturday
12,2021618.1073966157
770,8614822.013119422
2,13, 1,13, 0, 5, 0.00,60.00,Saturday
12,1946139.105370449
770,8550796.514817162
2,13, 1,13, 0, 6, 0.00,60.00,Saturday
12,18314463.321304408
770,9653896.326980524
2,13, 1,13, 0, 7, 0.00,60.00,Saturday
12,2383266.376098066
770,9154049.633840289
2,13, 1,13, 0, 8, 0.00,60.00,Saturday
12,3532319.7817750049
770,8101170.650799401
2,13, 1,13, 0, 9, 0.00,60.00,Saturday
12,3264566.981196359
770,5474930.688094032
2,13, 1,13, 0,10, 0.00,60.00,Saturday
12,5580048.743154354
770,3685428.9861020187
2,13, 1,13, 0,11, 0.00,60.00,Saturday
12,2945678.407651685
770,2119033.0969362396
2,13, 1,13, 0,12, 0.00,60.00,Saturday
12,5303410.421275646
770,666868.8879720167
2,13, 1,13, 0,13, 0.00,60.00,Saturday
12,9831453.62599307
770,0.0
2,13, 1,13, 0,14, 0.00,60.00,Saturday
12,5287526.094091862
770,0.0
2,13, 1,13, 0,15, 0.00,60.00,Saturday
12,2982807.2579929677
770,0.0
2,13, 1,13, 0,16, 0.00,60.00,Saturday
12,4410984.528788238
770,0.0
2,13, 1,13, 0,17, 0.00,60.00,Saturday
12,3773338.153543122
770,0.0
2,13, 1,13, 0,18, 0.00,60.00,Saturday
12,6225393.11026459
770,0.0
2,13, 1,13, 0,19, 0.00,60.00,Saturday
12,11129657.745027744
770,295359.6064219755
2,13, 1,13, 0,20, 0.00,60.00,Saturday
12,6299339.644753079
770,296517.862815425
2,13, 1,13, 0,21, 0.00,60.00,Saturday
12,8367514.479731261
770,821673.7902608608
2,13, 1,13, 0,22, 0.00,60.00,Saturday
12,24778844.057527756
770,2298680.4117808227
2,13, 1,13, 0,23, 0.00,60.00,Saturday
12,2902793.6222711268
770,3460808.2976705275
2,13, 1,13, 0,24, 0.00,60.00,Saturday
12,4199559.097985991
770,4087168.231500851
2,14, 1,14, 0, 1, 0.00,60.00,Sunday
12,2239210.5084500985
770,4113639.076530538
2,14, 1,14, 0, 2, 0.00,60.00,Sunday
12,2073684.0257901154
770,3774273.1332569757
2,14, 1,14, 0, 3, 0.00,60.00,Sunday
12,2003962.68384739
770,4289006.583651656
2,14, 1,14, 0, 4, 0.00,60.00,Sunday
12,4615094.480516474
770,4756422.332303414
2,14, 1,14, 0, 5, 0.00,60.00,Sunday
12,13014235.035845658
770,5696629.120624078
2,14, 1,14, 0, 6, 0.00,60.00,Sunday
12,2167928.62487774
770,5314350.350294825
2,14, 1,14, 0, 7, 0.00,60.00,Sunday
12,7500615.528366167
770,5824434.957481479
2,14, 1,14, 0, 8, 0.00,60.00,Sunday
12,4354190.699715912
770,5471183.908492529
2,14, 1,14, 0, 9, 0.00,60.00,Sunday
12,3162922.119144317
770,4385127.113519489
2,14, 1,14, 0,10, 0.00,60.00,Sunday
12,6282584.365099167
770,3258351.5732354659
2,14, 1,14, 0,11, 0.00,60.00,Sunday
12,3316295.215341622
770,1978998.6041389707
2,14, 1,14, 0,12, 0.00,60.00,Sunday
12,2939255.8857822564
770,32723.19287752131
2,14, 1,14, 0,13, 0.00,60.00,Sunday
12,4262089.816925471
770,0.0
2,14, 1,14, 0,14, 0.00,60.00,Sunday
12,2837270.3115673989
770,0.0
2,14, 1,14, 0,15, 0.00,60.00,Sunday
12,2978026.541765814
770,0.0
2,14, 1,14, 0,16, 0.00,60.00,Sunday
12,3066115.789601092
770,562680.2482245209
2,14, 1,14, 0,17, 0.00,60.00,Sunday
12,9068777.666106126
770,1413200.7924466539
2,14, 1,14, 0,18, 0.00,60.00,Sunday
12,7908948.456084628
770,1308159.3885539969
2,14, 1,14, 0,19, 0.00,60.00,Sunday
12,5255611.478539526
770,1637587.8897786176
2,14, 1,14, 0,20, 0.00,60.00,Sunday
12,5380042.780132936
770,2247831.816460246
2,14, 1,14, 0,21, 0.00,60.00,Sunday
12,5178099.118938767
770,3345375.034160254
2,14, 1,14, 0,22, 0.00,60.00,Sunday
12,5970533.154685437
770,4210622.595400261
2,14, 1,14, 0,23, 0.00,60.00,Sunday
12,4035207.3022763256
770,4866476.505342748
2,14, 1,14, 0,24, 0.00,60.00,Sunday
12,4279678.088425996
770,6233842.960263727
2,15, 1,15, 0, 1, 0.00,60.00,Monday
12,2289326.8648127319
770,6886769.096702033
2,15, 1,15, 0, 2, 0.00,60.00,Monday
12,2147311.366435867
770,7637486.544945527
2,15, 1,15, 0, 3, 0.00,60.00,Monday
12,2076432.1125218699
770,8091464.5610444969
2,15, 1,15, 0, 4, 0.00,60.00,Monday
12,2025993.232407292
770,8844384.040904455
2,15, 1,15, 0, 5, 0.00,60.00,Monday
12,1960295.7845519726
770,9293594.94267522
2,15, 1,15, 0, 6, 0.00,60.00,Monday
12,2260678.6893988165
770,9204152.037861588
2,15, 1,15, 0, 7, 0.00,60.00,Monday
12,3041364.043536275
770,10063604.452498002
2,15, 1,15, 0, 8, 0.00,60.00,Monday
12,4737131.600201172