Program Version,EnergyPlus, Version 9.1.0-fafb9d5652, YMD=2019.09.26 13:40
1,5,Environment Title[],Latitude[deg],Longitude[deg],Time Zone[],Elevation[m]
2,8,Day of Simulation[],Month[],Day of Month[],DST Indicator[1=yes 0=no],Hour[],StartMinute[],EndMinute[],DayType
3,5,Cumulative Day of Simulation[],Month[],Day of Month[],DST Indicator[1=yes 0=no],DayType  ! When Daily Report Variables Requested
4,2,Cumulative Days of Simulation[],Month[]  ! When Monthly Report Variables Requested
5,1,Cumulative Days of Simulation[] ! When Run Period Report Variables Requested
6,1,Calendar Year of Simulation[] ! When Annual Report Variables Requested
276,11,EMS,central ac and furnace supply fan Cooling [J] !RunPeriod [Value,Min,Month,Day,Hour,Minute,Max,Month,Day,Hour,Minute]
277,11,EMS,central ac and furnace supply fan Heating [J] !RunPeriod [Value,Min,Month,Day,Hour,Minute,Max,Month,Day,Hour,Minute]
278,11,EMS,water heater EC adjustment [J] !RunPeriod [Value,Min,Month,Day,Hour,Minute,Max,Month,Day,Hour,Minute]
279,1,CENTRAL AC AND FURNACE AIRLOOP RET AIR ZONE,Zone Mean Air Temperature [C] !Hourly
280,1,LIVING,Zone Mean Air Temperature [C] !Hourly
282,1,UNVENTED ATTIC,Zone Mean Air Temperature [C] !Hourly
584,11,FURNACE HTG COIL,Heating Coil Gas Energy [J] !RunPeriod [Value,Min,Month,Day,Hour,Minute,Max,Month,Day,Hour,Minute]
648,11,CENTRAL AC CLG COIL,Cooling Coil Electric Energy [J] !RunPeriod [Value,Min,Month,Day,Hour,Minute,Max,Month,Day,Hour,Minute]
875,11,WATER USE CONNECTIONS 1,Water Use Connections Plant Hot Water Energy [J] !RunPeriod [Value,Min,Month,Day,Hour,Minute,Max,Month,Day,Hour,Minute]
926,11,WATER HEATER,Water Heater Electric Energy [J] !RunPeriod [Value,Min,Month,Day,Hour,Minute,Max,Month,Day,Hour,Minute]
964,11,WATER HEATER,Water Heater Off Cycle Parasitic Electric Energy [J] !RunPeriod [Value,Min,Month,Day,Hour,Minute,Max,Month,Day,Hour,Minute]
966,11,WATER HEATER,Water Heater On Cycle Parasitic Electric Energy [J] !RunPeriod [Value,Min,Month,Day,Hour,Minute,Max,Month,Day,Hour,Minute]
1129,11,CENTRAL AC CLG COIL,Cooling Coil Crankcase Heater Electric Energy [J] !RunPeriod [Value,Min,Month,Day,Hour,Minute,Max,Month,Day,Hour,Minute]
End of Data Dictionary
1,RUN PERIOD 1,  39.83,-104.65,  -7.00,1650.00
2,1, 1, 1, 0, 1, 0.00,60.00,Monday
279,23.000000000000005
280,20.477328719878274
282,-7.713116683784536
2,1, 1, 1, 0, 2, 0.00,60.00,Monday
279,23.000000000000005
280,20.13308759507148
282,-10.279124980256802
2,1, 1, 1, 0, 3, 0.00,60.00,Monday
279,22.9974166643814
280,20.000674355055187
282,-12.351394497392997
2,1, 1, 1, 0, 4, 0.00,60.00,Monday
279,22.986822548922008
280,20.000660019162358
282,-13.800094470108958
2,1, 1, 1, 0, 5, 0.00,60.00,Monday
279,22.969478162641747
280,20.000142689804567
282,-14.64828524034716
2,1, 1, 1, 0, 6, 0.00,60.00,Monday
279,22.94932596261331
280,20.00000247552688
282,-14.97256464229996
2,1, 1, 1, 0, 7, 0.00,60.00,Monday
279,22.92855216952831
280,20.000000044099946
282,-14.926481729733869
2,1, 1, 1, 0, 8, 0.00,60.00,Monday
279,22.908649379058436
280,20.000017075590958
282,-14.113692859467799
2,1, 1, 1, 0, 9, 0.00,60.00,Monday
279,22.890521869794257
280,20.00001231415398
282,-12.235768756949467
2,1, 1, 1, 0,10, 0.00,60.00,Monday
279,22.87925690268786
280,20.000003838474485
282,-9.523377030076432
2,1, 1, 1, 0,11, 0.00,60.00,Monday
279,22.876944714250226
280,20.00000000159881
282,-6.563425246110486
2,1, 1, 1, 0,12, 0.00,60.00,Monday
279,22.87694476197716
280,20.055643698857759
282,-3.5372421153834519
2,1, 1, 1, 0,13, 0.00,60.00,Monday
279,22.876944796766236
280,20.000033301331674
282,-0.33115110284395068
2,1, 1, 1, 0,14, 0.00,60.00,Monday
279,22.873373399644579
280,20.000005337075075
282,1.5925048397590394
2,1, 1, 1, 0,15, 0.00,60.00,Monday
279,22.869371030040143
280,20.000002262196536
282,2.6762000151048728
2,1, 1, 1, 0,16, 0.00,60.00,Monday
279,22.86447284658488
280,20.000000185895975
282,2.8665779108361346
2,1, 1, 1, 0,17, 0.00,60.00,Monday
279,22.855981995292166
280,20.00000000193404
282,1.694937451428179
2,1, 1, 1, 0,18, 0.00,60.00,Monday
279,22.8412837641255
280,20.0000007470683
282,0.15019012949680086
2,1, 1, 1, 0,19, 0.00,60.00,Monday
279,22.82023319367406
280,20.000018972910199
282,-1.2261717388517864
2,1, 1, 1, 0,20, 0.00,60.00,Monday
279,22.79724531179283
280,20.00005611033061
282,-2.563783032733928
2,1, 1, 1, 0,21, 0.00,60.00,Monday
279,22.774523213762249
280,20.000044540327474
282,-3.915443051793607
2,1, 1, 1, 0,22, 0.00,60.00,Monday
279,22.750408126482996
280,20.00002501682365
282,-5.057022906732518
2,1, 1, 1, 0,23, 0.00,60.00,Monday
279,22.7231329050568
280,20.0000224632765
282,-5.7260721576240549
2,1, 1, 1, 0,24, 0.00,60.00,Monday
279,22.687825771341758
280,20.000014733509965
282,-5.669101200568002
2,2, 1, 2, 0, 1, 0.00,60.00,Tuesday
279,22.64777630084451
280,20.00000071789322
282,-5.19996603435872
2,2, 1, 2, 0, 2, 0.00,60.00,Tuesday
279,22.607687297918106
280,20.000000033155496
282,-5.044796679020774
2,2, 1, 2, 0, 3, 0.00,60.00,Tuesday
279,22.56808085875579
280,20.00000000148927
282,-5.045394676089469
2,2, 1, 2, 0, 4, 0.00,60.00,Tuesday
279,22.526307686296545
280,20.000000000071084
282,-5.270599310986932
2,2, 1, 2, 0, 5, 0.00,60.00,Tuesday
279,22.487350635620318
280,20.000000000003025
282,-5.613865729009476
2,2, 1, 2, 0, 6, 0.00,60.00,Tuesday
279,22.44972361623225
280,20.000000000000175
282,-6.07695908067323
2,2, 1, 2, 0, 7, 0.00,60.00,Tuesday
279,22.414709412367995
280,20.00000000000006
282,-6.209981594036411
2,2, 1, 2, 0, 8, 0.00,60.00,Tuesday
279,22.384035379899257
280,20.00000000000007
282,-6.185343178163229
2,2, 1, 2, 0, 9, 0.00,60.00,Tuesday
279,22.35581737384726
280,20.000000000000047
282,-5.3955958527350129
2,2, 1, 2, 0,10, 0.00,60.00,Tuesday
279,22.333728179216935
280,19.999999999999987
282,-3.419255647083841
2,2, 1, 2, 0,11, 0.00,60.00,Tuesday
279,22.319792376724675
280,20.00000000000003
282,-1.0184078738950995
2,2, 1, 2, 0,12, 0.00,60.00,Tuesday
279,22.31225253226077
280,20.000000000000019
282,1.644904215460828
2,2, 1, 2, 0,13, 0.00,60.00,Tuesday
279,22.307430757162736
280,20.0
282,4.2420688879499199
2,2, 1, 2, 0,14, 0.00,60.00,Tuesday
279,22.303020961826
280,20.000000000000008
282,6.716347812775384
2,2, 1, 2, 0,15, 0.00,60.00,Tuesday
279,22.299915813290494
280,19.999999999999994
282,8.541968846703217
2,2, 1, 2, 0,16, 0.00,60.00,Tuesday
279,22.295169921845849
280,19.999999999999984
282,8.748263338649462
2,2, 1, 2, 0,17, 0.00,60.00,Tuesday
279,22.28893904870232
280,20.000002331155476
282,7.666005349289093
2,2, 1, 2, 0,18, 0.00,60.00,Tuesday
279,22.281390434238256
280,20.000002900775625
282,5.9678415217481
2,2, 1, 2, 0,19, 0.00,60.00,Tuesday
279,22.270633385668658
280,20.00000808092306
282,4.335198542376943
2,2, 1, 2, 0,20, 0.00,60.00,Tuesday
279,22.257215737575409
280,20.000016793111774
282,2.679671547586888
2,2, 1, 2, 0,21, 0.00,60.00,Tuesday
279,22.240323209033418
280,20.000024744120919
282,1.1272301434670822
2,2, 1, 2, 0,22, 0.00,60.00,Tuesday
279,22.222902282191585
280,20.000019900532739
282,-0.1588744168890709
2,2, 1, 2, 0,23, 0.00,60.00,Tuesday
279,22.206131656567896
280,20.000014701927556
282,-1.415628484717518
2,2, 1, 2, 0,24, 0.00,60.00,Tuesday
279,22.186293316911955
280,20.000014125894766
282,-2.1660452338534714
2,3, 1, 3, 0, 1, 0.00,60.00,Wednesday
279,22.163181881688215
280,20.000031839170274
282,-2.3833174665011356
2,3, 1, 3, 0, 2, 0.00,60.00,Wednesday
279,22.137284350509188
280,20.00002522973752
282,-2.3694193814841015
2,3, 1, 3, 0, 3, 0.00,60.00,Wednesday
279,22.109431319241275
280,20.000008315335369
282,-2.3373518239305799
2,3, 1, 3, 0, 4, 0.00,60.00,Wednesday
279,22.07948925916489
280,20.00000032807181
282,-2.4228203869659858
2,3, 1, 3, 0, 5, 0.00,60.00,Wednesday
279,22.04782575636964
280,20.000000013519558
282,-2.505150100074584
2,3, 1, 3, 0, 6, 0.00,60.00,Wednesday
279,22.015395258166877
280,20.000000000565465
282,-2.373769080557099
2,3, 1, 3, 0, 7, 0.00,60.00,Wednesday
279,21.985007773111563
280,20.000000000021858
282,-2.1392386175561066
2,3, 1, 3, 0, 8, 0.00,60.00,Wednesday
279,21.95589233038085
280,20.00000000000086
282,-1.8601524580576093
2,3, 1, 3, 0, 9, 0.00,60.00,Wednesday
279,21.931985249545418
280,20.000000000000058
282,-0.8398958252431578
2,3, 1, 3, 0,10, 0.00,60.00,Wednesday
279,21.911395193024775
280,20.000000000000079
282,1.091106785445615
2,3, 1, 3, 0,11, 0.00,60.00,Wednesday
279,21.895590154267713
280,20.000020624041278
282,2.7873578048570506
2,3, 1, 3, 0,12, 0.00,60.00,Wednesday
279,21.88243846562807
280,20.000042590408066
282,3.9332935761690246
2,3, 1, 3, 0,13, 0.00,60.00,Wednesday
279,21.868641831880106
280,20.00002001008896
282,4.83599132076761
2,3, 1, 3, 0,14, 0.00,60.00,Wednesday
279,21.85197901892224
280,20.00000059316148
282,5.211013411549424
2,3, 1, 3, 0,15, 0.00,60.00,Wednesday
279,21.836189651220768
280,20.000000016336864
282,4.925734051691289
2,3, 1, 3, 0,16, 0.00,60.00,Wednesday
279,21.818192824036719
280,20.000000000555347
282,3.8865685380888359
2,3, 1, 3, 0,17, 0.00,60.00,Wednesday
279,21.797431842732867
280,20.00000000002186
282,2.332737904103794
2,3, 1, 3, 0,18, 0.00,60.00,Wednesday
279,21.77412863272817
280,20.000000000000857
282,0.30373698591341188
2,3, 1, 3, 0,19, 0.00,60.00,Wednesday
279,21.75037378347352
280,19.99999999999997
282,-1.5439662401589649
2,3, 1, 3, 0,20, 0.00,60.00,Wednesday
279,21.72619522883509
280,20.000000000000015
282,-3.2478570129057555
2,3, 1, 3, 0,21, 0.00,60.00,Wednesday
279,21.698193135584686
280,20.000071532751414
282,-4.851879539633995
2,3, 1, 3, 0,22, 0.00,60.00,Wednesday
279,21.66584037713094
280,20.00005193312383
282,-6.174624303326379
2,3, 1, 3, 0,23, 0.00,60.00,Wednesday
279,21.62901370409611
280,20.000006783484748
282,-7.379432222509921
2,3, 1, 3, 0,24, 0.00,60.00,Wednesday
279,21.587695863284464
280,20.000000406885748
282,-8.303392707771615
2,4, 1, 4, 0, 1, 0.00,60.00,Thursday
279,21.542466124761849
280,20.000000026026517
282,-9.162551399779325
2,4, 1, 4, 0, 2, 0.00,60.00,Thursday
279,21.492022719378487
280,20.00000000185443
282,-10.219827415431095
2,4, 1, 4, 0, 3, 0.00,60.00,Thursday
279,21.43784394253699
280,20.00000000013558
282,-11.182043412147844
2,4, 1, 4, 0, 4, 0.00,60.00,Thursday
279,21.383431285430129
280,20.00000000000981
282,-11.882686911268527
2,4, 1, 4, 0, 5, 0.00,60.00,Thursday
279,21.329872377213463
280,20.000000000000758
282,-12.43214396637035
2,4, 1, 4, 0, 6, 0.00,60.00,Thursday
279,21.277636419285594
280,20.00000000000013
282,-12.85480139370719
2,4, 1, 4, 0, 7, 0.00,60.00,Thursday
279,21.228299405839715
280,19.999999999999944
282,-13.399709833563648
2,4, 1, 4, 0, 8, 0.00,60.00,Thursday
279,21.18364326862322
280,19.99999999999994
282,-13.655215449052419
2,4, 1, 4, 0, 9, 0.00,60.00,Thursday
279,21.143530664186227
280,20.000000000000097
282,-13.007115221919185
2,4, 1, 4, 0,10, 0.00,60.00,Thursday
279,21.109526398479227
280,20.000038753088206
282,-10.386798610478769
2,4, 1, 4, 0,11, 0.00,60.00,Thursday
279,21.083600107215614
280,20.0000282596934
282,-5.83988524254427
2,4, 1, 4, 0,12, 0.00,60.00,Thursday
279,21.062796814714767
280,20.00000772639597
282,-1.3825459903160756
2,4, 1, 4, 0,13, 0.00,60.00,Thursday
279,21.046216663370914
280,20.000019326071553
282,2.605631194175411
2,4, 1, 4, 0,14, 0.00,60.00,Thursday
279,21.03329096159474
280,20.00001725388056
282,5.404267473421344
2,4, 1, 4, 0,15, 0.00,60.00,Thursday
279,21.022791322800477
280,20.000012483666397
282,7.381777617011356
2,4, 1, 4, 0,16, 0.00,60.00,Thursday
279,21.012382488874488
280,20.000016893836805
282,8.34822824838836
2,4, 1, 4, 0,17, 0.00,60.00,Thursday
279,21.002664999330447
280,20.000017588030479
282,8.13327051083695
2,4, 1, 4, 0,18, 0.00,60.00,Thursday
279,20.99399206479109
280,20.00001894774926
282,7.043073277183402
2,4, 1, 4, 0,19, 0.00,60.00,Thursday
279,20.985783613279
280,20.000025525521747
282,6.0239140658949819
2,4, 1, 4, 0,20, 0.00,60.00,Thursday
279,20.978123260373527
280,20.000028254662138
282,5.33422807063413
2,4, 1, 4, 0,21, 0.00,60.00,Thursday
279,20.970272152087799
280,20.000034208903075
282,4.855965935405425
2,4, 1, 4, 0,22, 0.00,60.00,Thursday
279,20.962072888285844
280,20.000028237205947
282,4.371064891826859
2,4, 1, 4, 0,23, 0.00,60.00,Thursday
279,20.953119148186369
280,20.00002533228527
282,3.7979917389516237
2,4, 1, 4, 0,24, 0.00,60.00,Thursday
279,20.944109819806788
280,20.000024531959654
282,4.180319698809518
2,5, 1, 5, 0, 1, 0.00,60.00,Friday
279,20.933924636765967
280,20.000026183121528
282,4.2976737339097819
2,5, 1, 5, 0, 2, 0.00,60.00,Friday
279,20.924047609387935
280,20.000018779150989
282,4.791091248385722
2,5, 1, 5, 0, 3, 0.00,60.00,Friday
279,20.915136267054483
280,20.000021268295204
282,5.781494021131114
2,5, 1, 5, 0, 4, 0.00,60.00,Friday
279,20.906357832643523
280,20.000025657938097
282,6.379965066889552
2,5, 1, 5, 0, 5, 0.00,60.00,Friday
279,20.897837759695436
280,20.000026514844156
282,6.367823851835061
2,5, 1, 5, 0, 6, 0.00,60.00,Friday
279,20.889620921771177
280,20.00002649162564
282,6.2534453830571039
2,5, 1, 5, 0, 7, 0.00,60.00,Friday
279,20.879737080568569
280,20.000037485063318
282,5.659961825907981
2,5, 1, 5, 0, 8, 0.00,60.00,Friday
279,20.871490842825
280,20.000043633169076
282,5.229581307577712
2,5, 1, 5, 0, 9, 0.00,60.00,Friday
279,20.865208397100134
280,20.000039744906279
282,5.378493213448654
2,5, 1, 5, 0,10, 0.00,60.00,Friday
279,20.860801783075496
280,20.00001507131662
282,6.570726224146499
2,5, 1, 5, 0,11, 0.00,60.00,Friday
279,20.85661441918897
280,20.000010224148157
282,8.181776718716545
2,5, 1, 5, 0,12, 0.00,60.00,Friday
279,20.8546238619891
280,20.000008449089508
282,9.972834750057146
2,5, 1, 5, 0,13, 0.00,60.00,Friday
279,20.85440604734294
280,20.000000001354228
282,11.169726847614044
2,5, 1, 5, 0,14, 0.00,60.00,Friday
279,20.854406066131156
280,20.00000000000044
282,11.50873184102905
2,5, 1, 5, 0,15, 0.00,60.00,Friday
279,20.853683648213484
280,20.000020416825408
282,10.989012847664768
2,5, 1, 5, 0,16, 0.00,60.00,Friday
279,20.851997345669266
280,20.000027388681429
282,9.6989301911376
2,5, 1, 5, 0,17, 0.00,60.00,Friday
279,20.84868599961921
280,20.000021355663266
282,8.313099767353059
2,5, 1, 5, 0,18, 0.00,60.00,Friday
279,20.844527533075149
280,20.000011034011849
282,6.899968519182233
2,5, 1, 5, 0,19, 0.00,60.00,Friday
279,20.83962424762474
280,20.000012629573609
282,5.56544470129941
2,5, 1, 5, 0,20, 0.00,60.00,Friday
279,20.833841643791705
280,20.00001286889052
282,4.4310696276398799
2,5, 1, 5, 0,21, 0.00,60.00,Friday
279,20.826593938702115
280,20.000012997358437
282,3.39530728061396
2,5, 1, 5, 0,22, 0.00,60.00,Friday
279,20.817952642615908
280,20.000012690408548
282,2.2759525990624125
2,5, 1, 5, 0,23, 0.00,60.00,Friday
279,20.80829914774199
280,20.000015069269769
282,1.1959285685737527
2,5, 1, 5, 0,24, 0.00,60.00,Friday
279,20.797090025882633
280,20.000016647986933
282,0.4268882034932062
2,6, 1, 6, 0, 1, 0.00,60.00,Saturday
279,20.784165193085529
280,20.000009741290218
282,0.13978399797583386
2,6, 1, 6, 0, 2, 0.00,60.00,Saturday
279,20.770455524832177
280,20.000000350609598
282,0.2301123422031135
2,6, 1, 6, 0, 3, 0.00,60.00,Saturday
279,20.756599363781495
280,20.000001504741907
282,0.28566629298102388
2,6, 1, 6, 0, 4, 0.00,60.00,Saturday
279,20.742172679533927
280,20.000000058212433
282,0.1534177834129765
2,6, 1, 6, 0, 5, 0.00,60.00,Saturday
279,20.72701341012176
280,20.000000002316246
282,-0.44192113485208248
2,6, 1, 6, 0, 6, 0.00,60.00,Saturday
279,20.710618387264874
280,20.000000000102259
282,-1.0972711599464218
2,6, 1, 6, 0, 7, 0.00,60.00,Saturday
279,20.693690818153799
280,20.000063061765677
282,-1.324218896184119
2,6, 1, 6, 0, 8, 0.00,60.00,Saturday
279,20.677357263334949
280,20.000043940730536
282,-1.3707402693646825
2,6, 1, 6, 0, 9, 0.00,60.00,Saturday
279,20.66182089378225
280,20.000001668473624
282,-1.1840838259837925
2,6, 1, 6, 0,10, 0.00,60.00,Saturday
279,20.647823003161649
280,20.000000060537244
282,-0.5431612539676082
2,6, 1, 6, 0,11, 0.00,60.00,Saturday
279,20.63569211281542
280,20.00000000196647
282,-0.16452854410974777
2,6, 1, 6, 0,12, 0.00,60.00,Saturday
279,20.62563713095629
280,20.00000000005175
282,0.19983175591144737
2,6, 1, 6, 0,13, 0.00,60.00,Saturday
279,20.616476042308375
280,20.000000000001536
282,0.8647427405424678
2,6, 1, 6, 0,14, 0.00,60.00,Saturday
279,20.606924322014078
280,20.000018903857453
282,1.3383003085609103
2,6, 1, 6, 0,15, 0.00,60.00,Saturday
279,20.597132758205427
280,20.00001300874034
282,1.495613041986039
2,6, 1, 6, 0,16, 0.00,60.00,Saturday
279,20.58715096650888
280,20.000000438065308
282,1.3320482644246508
2,6, 1, 6, 0,17, 0.00,60.00,Saturday
279,20.575833680731188
280,20.000000018134015
282,0.7629820503303795
2,6, 1, 6, 0,18, 0.00,60.00,Saturday
279,20.563472897605686
280,20.00000000072092
282,-0.044936478704767527
2,6, 1, 6, 0,19, 0.00,60.00,Saturday
279,20.551125453266154
280,20.000000000028714
282,-1.1738530103106822
2,6, 1, 6, 0,20, 0.00,60.00,Saturday
279,20.53748814492402
280,20.00004079042785
282,-2.154293962420585
2,6, 1, 6, 0,21, 0.00,60.00,Saturday
279,20.522712075765854
280,20.000042246315073
282,-3.218154675928067
2,6, 1, 6, 0,22, 0.00,60.00,Saturday
279,20.506667782658846
280,20.00005650466303
282,-4.334769888795071
2,6, 1, 6, 0,23, 0.00,60.00,Saturday
279,20.488328892852974
280,20.00016549904668
282,-5.05212024312889
2,6, 1, 6, 0,24, 0.00,60.00,Saturday
279,20.468387516532876
280,20.000115576552245
282,-5.6261108212803789
2,7, 1, 7, 0, 1, 0.00,60.00,Sunday
279,20.44636320018817
280,20.000017773176027
282,-6.055928763016947
2,7, 1, 7, 0, 2, 0.00,60.00,Sunday
279,20.423380514722738
280,20.000001050426726
282,-6.300106036359712
2,7, 1, 7, 0, 3, 0.00,60.00,Sunday
279,20.3999719562765
280,20.00000006818796
282,-6.774323120615508
2,7, 1, 7, 0, 4, 0.00,60.00,Sunday
279,20.37427665431141
280,20.00000000468718
282,-7.506851599219019
2,7, 1, 7, 0, 5, 0.00,60.00,Sunday
279,20.346439826988754
280,20.00000000035198
282,-8.514849511381899
2,7, 1, 7, 0, 6, 0.00,60.00,Sunday
279,20.316423567695897
280,20.000024394376785
282,-9.144019575507644
2,7, 1, 7, 0, 7, 0.00,60.00,Sunday
279,20.287321819583434
280,20.000001754450556
282,-9.563638806482537
2,7, 1, 7, 0, 8, 0.00,60.00,Sunday
279,20.26015611541747
280,20.000000092717408
282,-8.486047473297076
2,7, 1, 7, 0, 9, 0.00,60.00,Sunday
279,20.240794112965746
280,20.000000004532685
282,-6.232683750435757
2,7, 1, 7, 0,10, 0.00,60.00,Sunday
279,20.224451167034347
280,20.00000000020726
282,-3.6775964773260094
2,7, 1, 7, 0,11, 0.00,60.00,Sunday
279,20.210791312960358
280,20.00000000000856
282,-1.2523860962122755
2,7, 1, 7, 0,12, 0.00,60.00,Sunday
279,20.199778506695286
280,20.00000000000038
282,1.1628525932323442
2,7, 1, 7, 0,13, 0.00,60.00,Sunday
279,20.19091747915789
280,19.999999999999923
282,3.2864904713572904
2,7, 1, 7, 0,14, 0.00,60.00,Sunday
279,20.183334278797646
280,19.99999999999999
282,4.811302559130191
2,7, 1, 7, 0,15, 0.00,60.00,Sunday
279,20.176439227583488
280,19.999999999999944
282,5.746862347452759
2,7, 1, 7, 0,16, 0.00,60.00,Sunday
279,20.169996759853285
280,19.999999999999948
282,5.634687809910587
2,7, 1, 7, 0,17, 0.00,60.00,Sunday
279,20.163600725090139
280,20.000000000000065
282,5.212925127290875
2,7, 1, 7, 0,18, 0.00,60.00,Sunday
279,20.157371156564087
280,20.0
282,4.881449937555754
2,7, 1, 7, 0,19, 0.00,60.00,Sunday
279,20.15193234051748
280,20.00000000000002
282,4.523906239817317
2,7, 1, 7, 0,20, 0.00,60.00,Sunday
279,20.146970341063456
280,19.999999999999969
282,4.126216520024304
2,7, 1, 7, 0,21, 0.00,60.00,Sunday
279,20.141667814684867
280,20.000000000000069
282,3.533424897179578
2,7, 1, 7, 0,22, 0.00,60.00,Sunday
279,20.13542122852707
280,19.99999999999999
282,2.408860807817687
2,7, 1, 7, 0,23, 0.00,60.00,Sunday
279,20.128097520256416
280,20.000000000000055
282,1.3678972518452819
2,7, 1, 7, 0,24, 0.00,60.00,Sunday
279,20.120201791062045
280,20.000001524540634
282,1.073848281050531
2,8, 1, 8, 0, 1, 0.00,60.00,Monday
279,20.112506614907607
280,20.00000287243473
282,1.2008981141166935
2,8, 1, 8, 0, 2, 0.00,60.00,Monday
279,20.10448495375826
280,20.000000114674284
282,1.3072337278730566
2,8, 1, 8, 0, 3, 0.00,60.00,Monday
279,20.095969930261448
280,20.000000005054728
282,1.0945995260054844
2,8, 1, 8, 0, 4, 0.00,60.00,Monday
279,20.08628480244221
280,20.000000000280566
282,0.6998358439114535
2,8, 1, 8, 0, 5, 0.00,60.00,Monday
279,20.074034325194899
280,20.0000000000159
282,0.2106060742657536
2,8, 1, 8, 0, 6, 0.00,60.00,Monday
279,20.061507399775495
280,20.00000000000095
282,-0.5826927382320492
2,8, 1, 8, 0, 7, 0.00,60.00,Monday
279,20.049889127941815
280,20.000000000000165
282,-1.537857270657571
2,8, 1, 8, 0, 8, 0.00,60.00,Monday
279,20.03769984209812
280,19.999999999999895
282,-2.140461895753274
2,8, 1, 8, 0, 9, 0.00,60.00,Monday
279,20.02706944042957
280,20.000000000000033
282,-1.5249133509852906
2,8, 1, 8, 0,10, 0.00,60.00,Monday
279,20.018786467225575
280,20.0
282,0.0676119970817088
2,8, 1, 8, 0,11, 0.00,60.00,Monday
279,20.01308114785365
280,19.999999999999937
282,2.2385369867335815
2,8, 1, 8, 0,12, 0.00,60.00,Monday
279,20.00860576819558
280,20.0
282,4.303879875211435
2,8, 1, 8, 0,13, 0.00,60.00,Monday
279,20.005286738425306
280,20.00000000000002
282,6.122495511117528
2,8, 1, 8, 0,14, 0.00,60.00,Monday
279,20.003160462756477
280,20.0
282,7.363851713730782
2,8, 1, 8, 0,15, 0.00,60.00,Monday
279,20.00184930529728
280,19.999999999999998
282,7.559079238328379
2,8, 1, 8, 0,16, 0.00,60.00,Monday
279,20.00041701041116
280,19.999999999999976
282,6.622002721361196
2,8, 1, 8, 0,17, 0.00,60.00,Monday
279,19.998966037704375
280,20.000000000000044
282,5.406768496299695
2,8, 1, 8, 0,18, 0.00,60.00,Monday
279,19.9964718752771
280,20.000000000000033
282,3.9983812557487616
2,8, 1, 8, 0,19, 0.00,60.00,Monday
279,19.992605446301707
280,20.000002987909104
282,2.5959088438792117
2,8, 1, 8, 0,20, 0.00,60.00,Monday
279,19.98745866545067
280,20.000057614416794
282,1.4419967274801374
2,8, 1, 8, 0,21, 0.00,60.00,Monday
279,19.98131198897123
280,20.000051616734394
282,0.5261844442706779
2,8, 1, 8, 0,22, 0.00,60.00,Monday
279,19.975339563057756
280,20.000036655056087
282,-0.17602474964632798
2,8, 1, 8, 0,23, 0.00,60.00,Monday
279,19.96821157079554
280,20.00002813702189
282,-0.69326383820221
2,8, 1, 8, 0,24, 0.00,60.00,Monday
279,19.9612444284482
280,20.000034315057634
282,-1.2092974141701889
2,9, 1, 9, 0, 1, 0.00,60.00,Tuesday
279,19.952685424162778
280,20.000030809456537
282,-1.7429943708805969
2,9, 1, 9, 0, 2, 0.00,60.00,Tuesday
279,19.942863160518429
280,20.000026317747265
282,-2.2254280569092788
2,9, 1, 9, 0, 3, 0.00,60.00,Tuesday
279,19.932671429552355
280,20.000022193755087
282,-2.5976755106458344
2,9, 1, 9, 0, 4, 0.00,60.00,Tuesday
279,19.92216616364445
280,20.00001973900433
282,-2.8624431826155156
2,9, 1, 9, 0, 5, 0.00,60.00,Tuesday
279,19.911421187428116
280,20.00001847637576
282,-3.1449676688564427
2,9, 1, 9, 0, 6, 0.00,60.00,Tuesday
279,19.90067430511666
280,20.00001922452506
282,-3.3944790952335697
2,9, 1, 9, 0, 7, 0.00,60.00,Tuesday
279,19.88981675485733
280,20.000012722714304
282,-4.325041344798819
2,9, 1, 9, 0, 8, 0.00,60.00,Tuesday
279,19.878649607720797
280,20.000014836391516
282,-4.627459184731023
2,9, 1, 9, 0, 9, 0.00,60.00,Tuesday
279,19.869140328132667
280,20.000015541987528
282,-3.9247940163466645
2,9, 1, 9, 0,10, 0.00,60.00,Tuesday
279,19.861502726597157
280,20.00000109748627
282,-2.5042031739460066
2,9, 1, 9, 0,11, 0.00,60.00,Tuesday
279,19.855400257633855
280,20.000000034323326
282,-0.6731561283618751
2,9, 1, 9, 0,12, 0.00,60.00,Tuesday
279,19.85060996002107
280,20.000000000964623
282,0.9306301088950402
2,9, 1, 9, 0,13, 0.00,60.00,Tuesday
279,19.84682318071413
280,20.000000000026867
282,2.063983924344098
2,9, 1, 9, 0,14, 0.00,60.00,Tuesday
279,19.84336534355278
280,20.000000000000683
282,2.758246165802324
2,9, 1, 9, 0,15, 0.00,60.00,Tuesday
279,19.84023859220822
280,20.000000000000037
282,3.0604689342165649
2,9, 1, 9, 0,16, 0.00,60.00,Tuesday
279,19.83771158476624
280,19.99999999999996
282,3.0516622448692165
2,9, 1, 9, 0,17, 0.00,60.00,Tuesday
279,19.835354292026449
280,20.00000000000003
282,2.630511995415115
2,9, 1, 9, 0,18, 0.00,60.00,Tuesday
279,19.832462796600326
280,19.999999999999955
282,1.8164001624612878
2,9, 1, 9, 0,19, 0.00,60.00,Tuesday
279,19.828948664670205
280,20.000006469206374
282,0.8684675171037993
2,9, 1, 9, 0,20, 0.00,60.00,Tuesday
279,19.824844485315706
280,20.000024716307185
282,0.21803107909838247
2,9, 1, 9, 0,21, 0.00,60.00,Tuesday
279,19.82084454487829
280,20.000049738533009
282,-0.47066758342983086
2,9, 1, 9, 0,22, 0.00,60.00,Tuesday
279,19.815610956042759
280,20.00005100175275
282,-1.0833087365749886
2,9, 1, 9, 0,23, 0.00,60.00,Tuesday
279,19.809843410508007
280,20.00005247797831
282,-1.6995733167623184
2,9, 1, 9, 0,24, 0.00,60.00,Tuesday
279,19.803552167820095
280,20.00005630828358
282,-2.432694069172367
2,10, 1,10, 0, 1, 0.00,60.00,Wednesday
279,19.79530138746199
280,20.00007601950854
282,-3.0312655309566187
2,10, 1,10, 0, 2, 0.00,60.00,Wednesday
279,19.786458071957868
280,20.000060403657007
282,-3.5945382523612769
2,10, 1,10, 0, 3, 0.00,60.00,Wednesday
279,19.776914184609209
280,20.00002847732674
282,-4.109056145350285
2,10, 1,10, 0, 4, 0.00,60.00,Wednesday
279,19.76756835267331
280,20.00001459737052
282,-4.556432830640985
2,10, 1,10, 0, 5, 0.00,60.00,Wednesday
279,19.75710363459426
280,20.000002656700869
282,-4.88924866330097
2,10, 1,10, 0, 6, 0.00,60.00,Wednesday
279,19.74624546781368
280,20.000000157561094
282,-5.331169309882601
2,10, 1,10, 0, 7, 0.00,60.00,Wednesday
279,19.73479122222469
280,20.00000000870896
282,-5.640895295168384
2,10, 1,10, 0, 8, 0.00,60.00,Wednesday
279,19.724301282702123
280,20.000000000466725
282,-5.664399701753829
2,10, 1,10, 0, 9, 0.00,60.00,Wednesday
279,19.713742910817495
280,20.000000000021669
282,-4.939281206931744
2,10, 1,10, 0,10, 0.00,60.00,Wednesday
279,19.705428901626463
280,20.000000000000829
282,-3.468223052230951
2,10, 1,10, 0,11, 0.00,60.00,Wednesday
279,19.69867021413129
280,20.00001658810719
282,-1.5204597027241398
2,10, 1,10, 0,12, 0.00,60.00,Wednesday
279,19.693538366887375
280,20.000024234942648
282,0.4073203446928412
2,10, 1,10, 0,13, 0.00,60.00,Wednesday
279,19.690565200934505
280,20.000001335253989
282,1.8722043074494135
2,10, 1,10, 0,14, 0.00,60.00,Wednesday
279,19.689016048872984
280,20.00000002078082
282,2.7674931050909485
2,10, 1,10, 0,15, 0.00,60.00,Wednesday
279,19.687706772607418
280,20.00000000028442
282,2.7146851027959695
2,10, 1,10, 0,16, 0.00,60.00,Wednesday
279,19.68683930281668
280,20.000000000004467
282,2.4429682218726516
2,10, 1,10, 0,17, 0.00,60.00,Wednesday
279,19.686251883117657
280,20.00000000000014
282,2.085776541516622
2,10, 1,10, 0,18, 0.00,60.00,Wednesday
279,19.685040677718779
280,19.999999999999966
282,1.1684580541281394
2,10, 1,10, 0,19, 0.00,60.00,Wednesday
279,19.682851210730037
280,20.00000000000001
282,0.06284819485862173
2,10, 1,10, 0,20, 0.00,60.00,Wednesday
279,19.67969742171807
280,20.000000000000019
282,-0.9793437637109144
2,10, 1,10, 0,21, 0.00,60.00,Wednesday
279,19.676346294984709
280,20.000051202561737
282,-1.7180355044047502
2,10, 1,10, 0,22, 0.00,60.00,Wednesday
279,19.673084057541087
280,20.000046043689094
282,-2.3294326364554416
2,10, 1,10, 0,23, 0.00,60.00,Wednesday
279,19.66827223971032
280,20.000014278686998
282,-3.037902314757422
2,10, 1,10, 0,24, 0.00,60.00,Wednesday
279,19.663484365529937
280,20.00000405162861
282,-3.671101258540881
2,11, 1,11, 0, 1, 0.00,60.00,Thursday
279,19.65583662226935
280,20.00000022841319
282,-4.0985184413116439
2,11, 1,11, 0, 2, 0.00,60.00,Thursday
279,19.64815535849476
280,20.000000013347856
282,-4.629775764747167
2,11, 1,11, 0, 3, 0.00,60.00,Thursday
279,19.63938563050743
280,20.000000000754825
282,-5.100204322323195
2,11, 1,11, 0, 4, 0.00,60.00,Thursday
279,19.63114938922155
280,20.000000000044218
282,-5.361217689177536
2,11, 1,11, 0, 5, 0.00,60.00,Thursday
279,19.622336184630595
280,20.0000000000027
282,-5.288684219030284
2,11, 1,11, 0, 6, 0.00,60.00,Thursday
279,19.613017968465234
280,20.000000000000197
282,-5.012013629551884
2,11, 1,11, 0, 7, 0.00,60.00,Thursday
279,19.6045767872035
280,20.000000000000044
282,-4.762838457061498
2,11, 1,11, 0, 8, 0.00,60.00,Thursday
279,19.59678563751223
280,19.999999999999955
282,-4.428535208818967
2,11, 1,11, 0, 9, 0.00,60.00,Thursday
279,19.589773237052808
280,19.999999999999934
282,-3.5827753867138005
2,11, 1,11, 0,10, 0.00,60.00,Thursday
279,19.58164765325928
280,20.00001605781261
282,-2.1091875572276028
2,11, 1,11, 0,11, 0.00,60.00,Thursday
279,19.57578643023929
280,20.000000451637424
282,-0.10715412397092134
2,11, 1,11, 0,12, 0.00,60.00,Thursday
279,19.573014525957285
280,20.00000001026388
282,2.0842837255653627
2,11, 1,11, 0,13, 0.00,60.00,Thursday
279,19.571273181731426
280,20.000000000180959
282,4.591568777857146
2,11, 1,11, 0,14, 0.00,60.00,Thursday
279,19.570528263099459
280,20.00000000000284
282,7.020598578165625
2,11, 1,11, 0,15, 0.00,60.00,Thursday
279,19.570496710193994
280,20.00000000000007
282,8.731061169495698
2,11, 1,11, 0,16, 0.00,60.00,Thursday
279,19.57082751020314
280,20.00000000000001
282,9.47553624442478
2,11, 1,11, 0,17, 0.00,60.00,Thursday
279,19.57129454236999
280,19.99999999999999
282,9.253958195260541
2,11, 1,11, 0,18, 0.00,60.00,Thursday
279,19.57135841651344
280,20.00000000000002
282,7.8508283923715809
2,11, 1,11, 0,19, 0.00,60.00,Thursday
279,19.571155741627668
280,19.999999999999984
282,6.767804080080912
2,11, 1,11, 0,20, 0.00,60.00,Thursday
279,19.571448170971025
280,19.999999999999976
282,5.958397976911501
2,11, 1,11, 0,21, 0.00,60.00,Thursday
279,19.571371851242409
280,20.00000805187685
282,5.1713928954126839
2,11, 1,11, 0,22, 0.00,60.00,Thursday
279,19.570605377842964
280,20.000006949683177
282,4.847329400801368
2,11, 1,11, 0,23, 0.00,60.00,Thursday
279,19.570457514272236
280,20.000004227456473
282,4.612763630752048
2,11, 1,11, 0,24, 0.00,60.00,Thursday
279,19.57012567518377
280,20.00000890734686
282,4.3008205129360699
2,12, 1,12, 0, 1, 0.00,60.00,Friday
279,19.569673293688397
280,20.00000947752362
282,3.877797224246767
2,12, 1,12, 0, 2, 0.00,60.00,Friday
279,19.569078235770353
280,20.000008969648659