Program Version,EnergyPlus, Version 9.3.0-baff08990c, YMD=2020.04.27 17:57
1,5,Environment Title[],Latitude[deg],Longitude[deg],Time Zone[],Elevation[m]
2,8,Day of Simulation[],Month[],Day of Month[],DST Indicator[1=yes 0=no],Hour[],StartMinute[],EndMinute[],DayType
3,5,Cumulative Day of Simulation[],Month[],Day of Month[],DST Indicator[1=yes 0=no],DayType  ! When Daily Meters Requested
4,2,Cumulative Days of Simulation[],Month[]  ! When Monthly Meters Requested
5,1,Cumulative Days of Simulation[] ! When Run Period Meters Requested
6,1,Calendar Year of Simulation[] ! When Annual Meters Requested
16,11,Electricity:Facility [J] !RunPeriod [Value,Min,Month,Day,Hour,Minute,Max,Month,Day,Hour,Minute]
845,11,Gas:Facility [J] !RunPeriod [Value,Min,Month,Day,Hour,Minute,Max,Month,Day,Hour,Minute]
107,11,interior lighting:InteriorLights:Electricity [J] !RunPeriod [Value,Min,Month,Day,Hour,Minute,Max,Month,Day,Hour,Minute]
28,11,ExteriorLights:Electricity [J] !RunPeriod [Value,Min,Month,Day,Hour,Minute,Max,Month,Day,Hour,Minute]
219,11,mech vent:InteriorEquipment:Electricity [J] !RunPeriod [Value,Min,Month,Day,Hour,Minute,Max,Month,Day,Hour,Minute]
270,11,whole house fan:InteriorEquipment:Electricity [J] !RunPeriod [Value,Min,Month,Day,Hour,Minute,Max,Month,Day,Hour,Minute]
204,11,fridge:InteriorEquipment:Electricity [J] !RunPeriod [Value,Min,Month,Day,Hour,Minute,Max,Month,Day,Hour,Minute]
189,11,dishwasher:InteriorEquipment:Electricity [J] !RunPeriod [Value,Min,Month,Day,Hour,Minute,Max,Month,Day,Hour,Minute]
159,11,clothes washer:InteriorEquipment:Electricity [J] !RunPeriod [Value,Min,Month,Day,Hour,Minute,Max,Month,Day,Hour,Minute]
144,11,clothes dryer:InteriorEquipment:Electricity [J] !RunPeriod [Value,Min,Month,Day,Hour,Minute,Max,Month,Day,Hour,Minute]
174,11,cooking range:InteriorEquipment:Electricity [J] !RunPeriod [Value,Min,Month,Day,Hour,Minute,Max,Month,Day,Hour,Minute]
255,11,misc tv:InteriorEquipment:Electricity [J] !RunPeriod [Value,Min,Month,Day,Hour,Minute,Max,Month,Day,Hour,Minute]
240,11,misc plug loads:InteriorEquipment:Electricity [J] !RunPeriod [Value,Min,Month,Day,Hour,Minute,Max,Month,Day,Hour,Minute]
707,11,Heating:DistrictHeating [J] !RunPeriod [Value,Min,Month,Day,Hour,Minute,Max,Month,Day,Hour,Minute]
756,11,Cooling:DistrictCooling [J] !RunPeriod [Value,Min,Month,Day,Hour,Minute,Max,Month,Day,Hour,Minute]
12,1,Electricity:Facility [J] !Hourly
841,1,Gas:Facility [J] !Hourly
103,1,interior lighting:InteriorLights:Electricity [J] !Hourly
24,1,ExteriorLights:Electricity [J] !Hourly
215,1,mech vent:InteriorEquipment:Electricity [J] !Hourly
266,1,whole house fan:InteriorEquipment:Electricity [J] !Hourly
200,1,fridge:InteriorEquipment:Electricity [J] !Hourly
185,1,dishwasher:InteriorEquipment:Electricity [J] !Hourly
155,1,clothes washer:InteriorEquipment:Electricity [J] !Hourly
140,1,clothes dryer:InteriorEquipment:Electricity [J] !Hourly
170,1,cooking range:InteriorEquipment:Electricity [J] !Hourly
251,1,misc tv:InteriorEquipment:Electricity [J] !Hourly
236,1,misc plug loads:InteriorEquipment:Electricity [J] !Hourly
End of Data Dictionary
1,RUN PERIOD 1,  39.83,-104.65,  -7.00,1650.00
2,1, 1, 1, 0, 1, 0.00,60.00,Monday
12,2395089.5953994735
24,13133.634023603743
103,177271.88606911564
140,34314.164551677175
155,0.0
170,33823.53604600406
185,0.0
200,214406.6124122581
215,0.0
236,1208423.3329248299
251,304933.84876410107
266,0.0
841,12004181.137242994
2,1, 1, 1, 0, 2, 0.00,60.00,Monday
12,2236120.0844021446
24,7880.180414162213
103,106363.13164146894
140,20588.498731006275
155,0.0
170,33823.53604600406
185,0.0
200,209046.44710195173
215,0.0
236,1117791.5829554678
251,282063.8101067935
266,0.0
841,14616145.467384024
2,1, 1, 1, 0, 3, 0.00,60.00,Monday
12,2194126.7138961136
24,5253.453609441477
103,70908.75442764597
140,13725.665820670842
155,0.0
170,19327.734883430905
185,0.0
200,203686.28179164505
215,0.0
236,1117791.5829554678
251,282063.8101067935
266,0.0
841,15812800.174509833
2,1, 1, 1, 0, 4, 0.00,60.00,Monday
12,2161335.4424805047
24,5253.453609441477
103,70908.75442764597
140,6862.8329103354349
155,0.0
170,19327.734883430905
185,0.0
200,198326.11648133864
215,0.0
236,1087580.999632347
251,274440.4638876909
266,0.0
841,16718726.078899706
2,1, 1, 1, 0, 5, 0.00,60.00,Monday
12,2079112.6820490915
24,5840.658207808643
103,78834.5780400541
140,13725.665820670842
155,0.0
170,33823.53604600406
185,0.0
200,192965.95117103228
215,0.0
236,996949.2496629846
251,251570.42523038339
266,0.0
841,17073817.23323293
2,1, 1, 1, 0, 6, 0.00,60.00,Monday
12,2356087.361375224
24,16026.080925005024
103,216312.83365792936
140,20588.498731006275
155,0.0
170,53151.2709294349
185,0.0
200,192965.95117103228
215,0.0
236,1087580.999632347
251,274440.4638876909
266,0.0
841,16529109.36826699
2,1, 1, 1, 0, 7, 0.00,60.00,Monday
12,3035628.9892631557
24,37624.814061416066
103,507842.8209344053
140,54902.66328268342
155,0.0
170,120798.34302144323
185,0.0
200,203686.28179164505
215,0.0
236,1299055.0828941924
251,327803.8874214086
266,0.0
841,15946370.79144748
2,1, 1, 1, 0, 8, 0.00,60.00,Monday
12,3459726.7899920495
24,47613.232268258325
103,642661.9982612429
140,109805.32656536684
155,0.0
170,202941.21627602424
185,0.0
200,214406.6124122581
215,0.0
236,1419897.4161866753
251,358297.2722978187
266,0.0
841,14906871.214835996
2,1, 1, 1, 0, 9, 0.00,60.00,Monday
12,7349904.023354054
24,50599.49322596624
103,682969.2057954291
140,164707.98984805027
155,1776738.1253701838
170,222268.95115945536
185,0.0
200,219766.7777225645
215,0.0
236,1027159.8329861055
251,259193.77144948589
266,0.0
841,12977721.894083949
2,1, 1, 1, 0,10, 0.00,60.00,Monday
12,2462305.499813221
24,52012.74062072695
103,702044.5836155546
140,233336.31895140434
155,0.0
170,231932.81860117054
185,0.0
200,219766.7777225645
215,0.0
236,694843.4164317773
251,175336.9630393581
266,0.0
841,7807579.926860946
2,1, 1, 1, 0,11, 0.00,60.00,Monday
12,2579437.9583441789
24,50598.550021997624
103,682956.4748524042
140,267650.4835030815
155,0.0
170,202941.21627602424
185,0.0
200,214406.6124122581
215,0.0
236,725053.9997548979
251,182960.30925846063
266,0.0
841,3823492.267780777
2,1, 1, 1, 0,12, 0.00,60.00,Monday
12,2597413.7229259356
24,48639.22729229295
103,656510.4177223966
140,277944.73286858465
155,0.0
170,241596.68604288577
185,0.0
200,214406.6124122581
215,0.0
236,755264.5830780187
251,190583.65547756313
266,0.0
841,1703580.087736613
2,1, 1, 1, 0,13, 0.00,60.00,Monday
12,3870616.7877183968
24,47225.03669356352
103,637422.3089592449
140,253924.81768241054
155,0.0
170,275420.22208889006
185,0.0
200,225126.94303287086
215,0.0
236,725053.9997548979
251,182960.30925846063
266,0.0
841,1794143.9393937507
2,1, 1, 1, 0,14, 0.00,60.00,Monday
12,3573164.8551018687
24,46808.89036836303
103,631805.352995919
140,229904.90249623679
155,0.0
170,222268.95115945536
185,0.0
200,225126.94303287086
215,0.0
236,845896.3330473809
251,213453.69413487073
266,0.0
841,2216851.4533491299
2,1, 1, 1, 0,15, 0.00,60.00,Monday
12,2697290.5609689976
24,47538.264305590754
103,641650.1144130287
140,195590.73794455967
155,0.0
170,275420.22208889006
185,0.0
200,225126.94303287086
215,0.0
236,936528.0830167432
251,236323.73279217829
266,0.0
841,1614469.4863694467
2,1, 1, 1, 0,16, 0.00,60.00,Monday
12,4343782.821372092
24,51988.5350477318
103,701717.8676761182
140,209316.40376523027
155,343903.7318957958
170,212605.08371773945
185,0.0
200,219766.7777225645
215,0.0
236,966738.6663398639
251,243947.07901128083
266,0.0
841,1849138.3076018126
2,1, 1, 1, 0,17, 0.00,60.00,Monday
12,3445408.759118664
24,63845.92288129627
103,861763.5565792262
140,188727.90503422405
155,0.0
170,444537.90231891
185,0.0
200,235847.27365348399
215,0.0
236,1178212.7496017093
251,297310.5025449985
266,0.0
841,4060867.2137145625
2,1, 1, 1, 0,18, 0.00,60.00,Monday
12,5935973.602368293
24,84670.86016062966
103,1142849.1953402723
140,185296.4885790565
155,0.0
170,724790.058128658
185,0.0
200,257287.9348947098
215,0.0
236,1601160.9161253998
251,404037.3496124338
266,0.0
841,7029226.126740298
2,1, 1, 1, 0,19, 0.00,60.00,Monday
12,13164652.744968843
24,103863.12985038012
103,1401897.8211611738
140,175002.23921355338
155,0.0
170,565336.2453403532
185,0.0
200,268008.26551532259
215,0.0
236,1903266.749356607
251,480270.8118034591
266,0.0
841,9343723.112113936
2,1, 1, 1, 0,20, 0.00,60.00,Monday
12,5389998.428547722
24,105153.55552703563
103,1419315.406661243
140,175002.23921355338
155,0.0
170,289916.02325146328
185,0.0
200,257287.9348947098
215,0.0
236,2024109.08264909
251,510764.1966798692
266,0.0
841,10226273.460609246
2,1, 1, 1, 0,21, 0.00,60.00,Monday
12,4876162.378811189
24,87299.80415468643
103,1178333.499178719
140,178433.65566872093
155,0.0
170,169117.68023001997
185,0.0
200,251927.7695844031
215,0.0
236,2144951.415941573
251,541257.5815562792
266,0.0
841,10496818.5307941
2,1, 1, 1, 0,22, 0.00,60.00,Monday
12,4515715.449914873
24,65866.14221702153
103,889031.5687130868
140,185296.4885790565
155,0.0
170,120798.34302144323
185,0.0
200,246567.6042740967
215,0.0
236,2084530.2492953318
251,526010.8891180742
266,0.0
841,11418176.349391826
2,1, 1, 1, 0,23, 0.00,60.00,Monday
12,5085459.423961604
24,56931.15998532923
103,768431.1964658087
140,150982.32402737934
155,0.0
170,77310.93953372377
185,0.0
200,235847.27365348399
215,0.0
236,1782424.4160641244
251,449777.426927049
266,0.0
841,12780586.441665762
2,1, 1, 1, 0,24, 0.00,60.00,Monday
12,3028952.2323672797
24,26450.161482620908
103,357012.38548524
140,82353.994924025
155,0.0
170,53151.2709294349
185,0.0
200,219766.7777225645
215,0.0
236,1510529.1661560375
251,381167.31095512627
266,0.0
841,15639918.193074523
2,2, 1, 2, 0, 1, 0.00,60.00,Tuesday
12,2485954.073531647
24,13133.634023603743
103,177271.88606911564
140,34314.164551677175
155,0.0
170,33823.53604600406
185,0.0
200,214406.6124122581
215,0.0
236,1208423.3329248299
251,304933.84876410107
266,0.0
841,16771824.0737878
2,2, 1, 2, 0, 2, 0.00,60.00,Tuesday
12,2278303.468991961
24,7880.180414162213
103,106363.13164146894
140,20588.498731006275
155,0.0
170,33823.53604600406
185,0.0
200,209046.44710195173
215,0.0
236,1117791.5829554678
251,282063.8101067935
266,0.0
841,16829500.121626848
2,2, 1, 2, 0, 3, 0.00,60.00,Tuesday
12,2215438.9529297987
24,5253.453609441477
103,70908.75442764597
140,13725.665820670842
155,0.0
170,19327.734883430905
185,0.0
200,203686.28179164505
215,0.0
236,1117791.5829554678
251,282063.8101067935
266,0.0
841,16931049.549618745
2,2, 1, 2, 0, 4, 0.00,60.00,Tuesday
12,2188500.531784092
24,5253.453609441477
103,70908.75442764597
140,6862.8329103354349
155,0.0
170,19327.734883430905
185,0.0
200,198326.11648133864
215,0.0
236,1087580.999632347
251,274440.4638876909
266,0.0
841,18144073.462180415
2,2, 1, 2, 0, 5, 0.00,60.00,Tuesday
12,2072744.9868235265
24,5840.658207808643
103,78834.5780400541
140,13725.665820670842
155,0.0
170,33823.53604600406
185,0.0
200,192965.95117103228
215,0.0
236,996949.2496629846
251,251570.42523038339
266,0.0
841,16739705.402203938
2,2, 1, 2, 0, 6, 0.00,60.00,Tuesday
12,2362625.1346522935
24,16026.080925005024
103,216312.83365792936
140,20588.498731006275
155,0.0
170,53151.2709294349
185,0.0
200,192965.95117103228
215,0.0
236,1087580.999632347
251,274440.4638876909
266,0.0
841,16872145.16427751
2,2, 1, 2, 0, 7, 0.00,60.00,Tuesday
12,3032775.868100254
24,37624.814061416066
103,507842.8209344053
140,54902.66328268342
155,0.0
170,120798.34302144323
185,0.0
200,203686.28179164505
215,0.0
236,1299055.0828941924
251,327803.8874214086
266,0.0
841,15796668.033680818
2,2, 1, 2, 0, 8, 0.00,60.00,Tuesday
12,4617805.197266029
24,47613.232268258325
103,642661.9982612429
140,109805.32656536684
155,0.0
170,202941.21627602424
185,0.0
200,214406.6124122581
215,0.0
236,1419897.4161866753
251,358297.2722978187
266,0.0
841,14005208.78037664
2,2, 1, 2, 0, 9, 0.00,60.00,Tuesday
12,2964299.9215047999
24,50599.49322596624
103,682969.2057954291
140,164707.98984805027
155,0.0
170,222268.95115945536
185,0.0
200,219766.7777225645
215,0.0
236,1027159.8329861055
251,259193.77144948589
266,0.0
841,12573630.098163454
2,2, 1, 2, 0,10, 0.00,60.00,Tuesday
12,3877765.371215852
24,52012.74062072695
103,702044.5836155546
140,233336.31895140434
155,0.0
170,231932.81860117054
185,0.0
200,219766.7777225645
215,0.0
236,694843.4164317773
251,175336.9630393581
266,0.0
841,8051185.644464358
2,2, 1, 2, 0,11, 0.00,60.00,Tuesday
12,3688737.8168419555
24,50598.550021997624
103,682956.4748524042
140,267650.4835030815
155,0.0
170,202941.21627602424
185,0.0
200,214406.6124122581
215,0.0
236,725053.9997548979
251,182960.30925846063
266,0.0
841,3678879.0543720715
2,2, 1, 2, 0,12, 0.00,60.00,Tuesday
12,2504447.0258403008
24,48639.22729229295
103,656510.4177223966
140,277944.73286858465
155,0.0
170,241596.68604288577
185,0.0
200,214406.6124122581
215,0.0
236,755264.5830780187
251,190583.65547756313
266,0.0
841,1212319.9826829425
2,2, 1, 2, 0,13, 0.00,60.00,Tuesday
12,3682178.4572268
24,47225.03669356352
103,637422.3089592449
140,253924.81768241054
155,0.0
170,275420.22208889006
185,0.0
200,225126.94303287086
215,0.0
236,725053.9997548979
251,182960.30925846063
266,0.0
841,0.0
2,2, 1, 2, 0,14, 0.00,60.00,Tuesday
12,2514674.169409107
24,46808.89036836303
103,631805.352995919
140,229904.90249623679
155,0.0
170,222268.95115945536
185,0.0
200,225126.94303287086
215,0.0
236,845896.3330473809
251,213453.69413487073
266,0.0
841,0.0
2,2, 1, 2, 0,15, 0.00,60.00,Tuesday
12,2558178.097593861
24,47538.264305590754
103,641650.1144130287
140,195590.73794455967
155,0.0
170,275420.22208889006
185,0.0
200,225126.94303287086
215,0.0
236,936528.0830167432
251,236323.73279217829
266,0.0
841,0.0
2,2, 1, 2, 0,16, 0.00,60.00,Tuesday
12,3956525.910193621
24,51988.5350477318
103,701717.8676761182
140,209316.40376523027
155,0.0
170,212605.08371773945
185,0.0
200,219766.7777225645
215,0.0
236,966738.6663398639
251,243947.07901128083
266,0.0
841,0.0
2,2, 1, 2, 0,17, 0.00,60.00,Tuesday
12,3394050.4423546215
24,63845.92288129627
103,861763.5565792262
140,188727.90503422405
155,0.0
170,444537.90231891
185,0.0
200,235847.27365348399
215,0.0
236,1178212.7496017093
251,297310.5025449985
266,0.0
841,1336410.4651147209
2,2, 1, 2, 0,18, 0.00,60.00,Tuesday
12,4634666.5615622079
24,84670.86016062966
103,1142849.1953402723
140,185296.4885790565
155,0.0
170,724790.058128658
185,0.0
200,257287.9348947098
215,0.0
236,1601160.9161253998
251,404037.3496124338
266,0.0
841,2863475.371625746
2,2, 1, 2, 0,19, 0.00,60.00,Tuesday
12,5172117.664038959
24,103863.12985038012
103,1401897.8211611738
140,175002.23921355338
155,0.0
170,565336.2453403532
185,0.0
200,268008.26551532259
215,0.0
236,1903266.749356607
251,480270.8118034591
266,0.0
841,4956950.046815877
2,2, 1, 2, 0,20, 0.00,60.00,Tuesday
12,6214240.214041378
24,105153.55552703563
103,1419315.406661243
140,175002.23921355338
155,0.0
170,289916.02325146328
185,0.0
200,257287.9348947098
215,0.0
236,2024109.08264909
251,510764.1966798692
266,0.0
841,6098094.733921455
2,2, 1, 2, 0,21, 0.00,60.00,Tuesday
12,4800661.725487527
24,87299.80415468643
103,1178333.499178719
140,178433.65566872093
155,0.0
170,169117.68023001997
185,0.0
200,251927.7695844031
215,0.0
236,2144951.415941573
251,541257.5815562792
266,0.0
841,7798865.090306621
2,2, 1, 2, 0,22, 0.00,60.00,Tuesday
12,4448365.840120709
24,65866.14221702153
103,889031.5687130868
140,185296.4885790565
155,0.0
170,120798.34302144323
185,0.0
200,246567.6042740967
215,0.0
236,2084530.2492953318
251,526010.8891180742
266,0.0
841,7884354.354099939
2,2, 1, 2, 0,23, 0.00,60.00,Tuesday
12,3847918.4093263896
24,56931.15998532923
103,768431.1964658087
140,150982.32402737934
155,0.0
170,77310.93953372377
185,0.0
200,235847.27365348399
215,0.0
236,1782424.4160641244
251,449777.426927049
266,0.0
841,7671805.286934723
2,2, 1, 2, 0,24, 0.00,60.00,Tuesday
12,7423249.876355247
24,26450.161482620908
103,357012.38548524
140,82353.994924025
155,0.0
170,53151.2709294349
185,0.0
200,219766.7777225645
215,0.0
236,1510529.1661560375
251,381167.31095512627
266,0.0
841,9199428.238983958
2,3, 1, 3, 0, 1, 0.00,60.00,Wednesday
12,2055435.6361713908
24,13133.634023603743
103,177271.88606911564
140,34314.164551677175
155,0.0
170,33823.53604600406
185,0.0
200,214406.6124122581
215,0.0
236,1208423.3329248299
251,304933.84876410107
266,0.0
841,10428140.771199013
2,3, 1, 3, 0, 2, 0.00,60.00,Wednesday
12,2178712.1143672915
24,7880.180414162213
103,106363.13164146894
140,20588.498731006275
155,0.0
170,33823.53604600406
185,0.0
200,209046.44710195173
215,0.0
236,1117791.5829554678
251,282063.8101067935
266,0.0
841,11603959.534395876
2,3, 1, 3, 0, 3, 0.00,60.00,Wednesday
12,2130365.3958984494
24,5253.453609441477
103,70908.75442764597
140,13725.665820670842
155,0.0
170,19327.734883430905
185,0.0
200,203686.28179164505
215,0.0
236,1117791.5829554678
251,282063.8101067935
266,0.0
841,12467255.208806536
2,3, 1, 3, 0, 4, 0.00,60.00,Wednesday
12,3247538.3865523508
24,5253.453609441477
103,70908.75442764597
140,6862.8329103354349
155,0.0
170,19327.734883430905
185,0.0
200,198326.11648133864
215,0.0
236,1087580.999632347
251,274440.4638876909
266,0.0
841,13539104.339185164
2,3, 1, 3, 0, 5, 0.00,60.00,Wednesday
12,1946298.7907619132
24,5840.658207808643
103,78834.5780400541
140,13725.665820670842
155,0.0
170,33823.53604600406
185,0.0
200,192965.95117103228
215,0.0
236,996949.2496629846
251,251570.42523038339
266,0.0
841,14303509.346189378
2,3, 1, 3, 0, 6, 0.00,60.00,Wednesday
12,2320856.6847373589
24,16026.080925005024
103,216312.83365792936
140,20588.498731006275
155,0.0
170,53151.2709294349
185,0.0
200,192965.95117103228
215,0.0
236,1087580.999632347
251,274440.4638876909
266,0.0
841,14680562.05830629
2,3, 1, 3, 0, 7, 0.00,60.00,Wednesday
12,2996609.1118655286
24,37624.814061416066
103,507842.8209344053
140,54902.66328268342
155,0.0
170,120798.34302144323
185,0.0
200,203686.28179164505
215,0.0
236,1299055.0828941924
251,327803.8874214086
266,0.0
841,13899004.794484009
2,3, 1, 3, 0, 8, 0.00,60.00,Wednesday
12,3438139.9597701469
24,47613.232268258325
103,642661.9982612429
140,109805.32656536684
155,0.0
170,202941.21627602424
185,0.0
200,214406.6124122581
215,0.0
236,1419897.4161866753
251,358297.2722978187
266,0.0
841,13774214.089131279
2,3, 1, 3, 0, 9, 0.00,60.00,Wednesday
12,3000588.2959538067
24,50599.49322596624
103,682969.2057954291
140,164707.98984805027
155,0.0
170,222268.95115945536
185,0.0
200,219766.7777225645
215,0.0
236,1027159.8329861055
251,259193.77144948589
266,0.0
841,10175067.064357916
2,3, 1, 3, 0,10, 0.00,60.00,Wednesday
12,14180891.327170918
24,52012.74062072695
103,702044.5836155546
140,233336.31895140434
155,0.0
170,231932.81860117054
185,0.0
200,219766.7777225645
215,0.0
236,694843.4164317773
251,175336.9630393581
266,0.0
841,8101695.253209702
2,3, 1, 3, 0,11, 0.00,60.00,Wednesday
12,11173428.138164336
24,50598.550021997624
103,682956.4748524042
140,267650.4835030815
155,0.0
170,202941.21627602424
185,0.0
200,214406.6124122581
215,0.0
236,725053.9997548979
251,182960.30925846063
266,0.0
841,4779772.756470863
2,3, 1, 3, 0,12, 0.00,60.00,Wednesday
12,2387523.017225186
24,48639.22729229295
103,656510.4177223966
140,277944.73286858465
155,0.0
170,241596.68604288577
185,0.0
200,214406.6124122581
215,0.0
236,755264.5830780187
251,190583.65547756313
266,0.0
841,3064669.1026425075
2,3, 1, 3, 0,13, 0.00,60.00,Wednesday
12,2547275.3964340656
24,47225.03669356352
103,637422.3089592449
140,253924.81768241054
155,0.0
170,275420.22208889006
185,0.0
200,225126.94303287086
215,0.0
236,725053.9997548979
251,182960.30925846063
266,0.0
841,2589653.911667779
2,3, 1, 3, 0,14, 0.00,60.00,Wednesday
12,2663060.8415527928
24,46808.89036836303
103,631805.352995919
140,229904.90249623679
155,0.0
170,222268.95115945536
185,0.0
200,225126.94303287086
215,0.0
236,845896.3330473809
251,213453.69413487073
266,0.0
841,3557232.168143616
2,3, 1, 3, 0,15, 0.00,60.00,Wednesday
12,2789953.827412553
24,47538.264305590754
103,641650.1144130287
140,195590.73794455967
155,0.0
170,275420.22208889006
185,0.0
200,225126.94303287086
215,0.0
236,936528.0830167432
251,236323.73279217829
266,0.0
841,2716663.294928831
2,3, 1, 3, 0,16, 0.00,60.00,Wednesday
12,2885977.786332274
24,51988.5350477318
103,701717.8676761182
140,209316.40376523027
155,0.0
170,212605.08371773945
185,0.0
200,219766.7777225645
215,0.0
236,966738.6663398639
251,243947.07901128083
266,0.0
841,5241597.319435783
2,3, 1, 3, 0,17, 0.00,60.00,Wednesday
12,3600835.41267968
24,63845.92288129627
103,861763.5565792262
140,188727.90503422405
155,0.0
170,444537.90231891
185,0.0
200,235847.27365348399
215,0.0
236,1178212.7496017093
251,297310.5025449985
266,0.0
841,7901409.415752252
2,3, 1, 3, 0,18, 0.00,60.00,Wednesday
12,5911686.721239401
24,84670.86016062966
103,1142849.1953402723
140,185296.4885790565
155,0.0
170,724790.058128658
185,0.0
200,257287.9348947098
215,0.0
236,1601160.9161253998
251,404037.3496124338
266,0.0
841,9766772.661372386
2,3, 1, 3, 0,19, 0.00,60.00,Wednesday
12,6379145.029715782
24,103863.12985038012
103,1401897.8211611738
140,175002.23921355338
155,0.0
170,565336.2453403532
185,0.0
200,268008.26551532259
215,0.0
236,1903266.749356607
251,480270.8118034591
266,0.0
841,9928219.667808768
2,3, 1, 3, 0,20, 0.00,60.00,Wednesday
12,10813700.573011067
24,105153.55552703563
103,1419315.406661243
140,175002.23921355338
155,0.0
170,289916.02325146328
185,2969117.3837074965
200,257287.9348947098
215,0.0
236,2024109.08264909
251,510764.1966798692
266,0.0
841,11001800.590517072
2,3, 1, 3, 0,21, 0.00,60.00,Wednesday
12,5922283.277089454
24,87299.80415468643
103,1178333.499178719
140,178433.65566872093
155,0.0
170,169117.68023001997
185,0.0
200,251927.7695844031
215,0.0
236,2144951.415941573
251,541257.5815562792
266,0.0
841,13282602.381734565
2,3, 1, 3, 0,22, 0.00,60.00,Wednesday
12,4509005.587482249
24,65866.14221702153
103,889031.5687130868
140,185296.4885790565
155,0.0
170,120798.34302144323
185,0.0
200,246567.6042740967
215,0.0
236,2084530.2492953318
251,526010.8891180742
266,0.0
841,15203548.378977009
2,3, 1, 3, 0,23, 0.00,60.00,Wednesday
12,4035115.6211989598
24,56931.15998532923
103,768431.1964658087
140,150982.32402737934
155,0.0
170,77310.93953372377
185,0.0
200,235847.27365348399
215,0.0
236,1782424.4160641244
251,449777.426927049
266,0.0
841,17494009.554997576
2,3, 1, 3, 0,24, 0.00,60.00,Wednesday
12,4341960.898205841
24,26450.161482620908
103,357012.38548524
140,82353.994924025
155,0.0
170,53151.2709294349
185,0.0
200,219766.7777225645
215,0.0
236,1510529.1661560375
251,381167.31095512627
266,0.0
841,19488815.198397664
2,4, 1, 4, 0, 1, 0.00,60.00,Thursday
12,2491836.9608330128
24,13133.634023603743
103,177271.88606911564
140,34314.164551677175
155,0.0
170,33823.53604600406
185,0.0
200,214406.6124122581
215,0.0
236,1208423.3329248299
251,304933.84876410107
266,0.0
841,21327597.92721811
2,4, 1, 4, 0, 2, 0.00,60.00,Thursday
12,2422470.681918915
24,7880.180414162213
103,106363.13164146894
140,20588.498731006275
155,0.0
170,33823.53604600406
185,0.0
200,209046.44710195173
215,0.0
236,1117791.5829554678
251,282063.8101067935
266,0.0
841,24393928.031428134
2,4, 1, 4, 0, 3, 0.00,60.00,Thursday
12,2381057.3234748437
24,5253.453609441477
103,70908.75442764597
140,13725.665820670842
155,0.0
170,19327.734883430905
185,0.0
200,203686.28179164505
215,0.0
236,1117791.5829554678
251,282063.8101067935
266,0.0
841,25621015.86783784
2,4, 1, 4, 0, 4, 0.00,60.00,Thursday
12,2330298.0183390618
24,5253.453609441477
103,70908.75442764597
140,6862.8329103354349
155,0.0
170,19327.734883430905
185,0.0
200,198326.11648133864
215,0.0
236,1087580.999632347
251,274440.4638876909
266,0.0
841,25584162.25254602
2,4, 1, 4, 0, 5, 0.00,60.00,Thursday
12,3406197.8226212535
24,5840.658207808643
103,78834.5780400541
140,13725.665820670842
155,0.0
170,33823.53604600406
185,0.0
200,192965.95117103228
215,0.0
236,996949.2496629846
251,251570.42523038339
266,0.0
841,25705203.914187608
2,4, 1, 4, 0, 6, 0.00,60.00,Thursday
12,2442573.8760544329
24,16026.080925005024
103,216312.83365792936
140,20588.498731006275
155,0.0
170,53151.2709294349
185,0.0
200,192965.95117103228
215,0.0
236,1087580.999632347
251,274440.4638876909
266,0.0
841,25323229.230590278
2,4, 1, 4, 0, 7, 0.00,60.00,Thursday
12,3190319.984057925
24,37624.814061416066
103,507842.8209344053
140,54902.66328268342
155,0.0
170,120798.34302144323
185,0.0
200,203686.28179164505
215,0.0
236,1299055.0828941924
251,327803.8874214086
266,0.0
841,24062979.655998149
2,4, 1, 4, 0, 8, 0.00,60.00,Thursday
12,4756664.33801011
24,47613.232268258325
103,642661.9982612429
140,109805.32656536684
155,0.0
170,202941.21627602424
185,0.0
200,214406.6124122581
215,0.0
236,1419897.4161866753
251,358297.2722978187
266,0.0
841,21209008.432196257
2,4, 1, 4, 0, 9, 0.00,60.00,Thursday
12,12498618.478783889
24,50599.49322596624
103,682969.2057954291
140,164707.98984805027
155,0.0
170,222268.95115945536
185,0.0
200,219766.7777225645
215,0.0
236,1027159.8329861055
251,259193.77144948589
266,0.0
841,18764882.816259207
2,4, 1, 4, 0,10, 0.00,60.00,Thursday
12,4607702.705344449
24,52012.74062072695
103,702044.5836155546
140,233336.31895140434
155,0.0
170,231932.81860117054
185,0.0
200,219766.7777225645
215,0.0
236,694843.4164317773
251,175336.9630393581
266,0.0
841,14354703.671921084
2,4, 1, 4, 0,11, 0.00,60.00,Thursday
12,2553789.0943002707
24,50598.550021997624
103,682956.4748524042
140,267650.4835030815
155,0.0
170,202941.21627602424
185,0.0
200,214406.6124122581
215,0.0
236,725053.9997548979
251,182960.30925846063
266,0.0
841,11636951.821160192
2,4, 1, 4, 0,12, 0.00,60.00,Thursday
12,7925611.494440922
24,48639.22729229295
103,656510.4177223966
140,277944.73286858465
155,0.0
170,241596.68604288577
185,0.0
200,214406.6124122581
215,0.0
236,755264.5830780187
251,190583.65547756313
266,0.0
841,10612225.5593568
2,4, 1, 4, 0,13, 0.00,60.00,Thursday
12,2948481.598831036
24,47225.03669356352
103,637422.3089592449
140,253924.81768241054
155,0.0
170,275420.22208889006
185,0.0
200,225126.94303287086
215,0.0
236,725053.9997548979
251,182960.30925846063
266,0.0
841,8513309.53391752
2,4, 1, 4, 0,14, 0.00,60.00,Thursday
12,2692907.1646236039
24,46808.89036836303
103,631805.352995919
140,229904.90249623679
155,0.0
170,222268.95115945536
185,0.0
200,225126.94303287086
215,0.0
236,845896.3330473809
251,213453.69413487073
266,0.0
841,7389458.366684934
2,4, 1, 4, 0,15, 0.00,60.00,Thursday
12,2675981.863972549
24,47538.264305590754
103,641650.1144130287
140,195590.73794455967
155,0.0
170,275420.22208889006
185,0.0
200,225126.94303287086
215,0.0
236,936528.0830167432
251,236323.73279217829
266,0.0
841,6181142.578695504
2,4, 1, 4, 0,16, 0.00,60.00,Thursday
12,3903360.992498164
24,51988.5350477318
103,701717.8676761182
140,209316.40376523027
155,0.0
170,212605.08371773945
185,0.0
200,219766.7777225645
215,0.0
236,966738.6663398639
251,243947.07901128083
266,0.0
841,7153288.612271291
2,4, 1, 4, 0,17, 0.00,60.00,Thursday
12,3497915.4531543885
24,63845.92288129627
103,861763.5565792262
140,188727.90503422405
155,0.0
170,444537.90231891
185,0.0
200,235847.27365348399
215,0.0
236,1178212.7496017093
251,297310.5025449985
266,0.0
841,6751422.940896851
2,4, 1, 4, 0,18, 0.00,60.00,Thursday
12,4963183.145500681
24,84670.86016062966
103,1142849.1953402723
140,185296.4885790565
155,0.0
170,724790.058128658
185,0.0
200,257287.9348947098
215,0.0
236,1601160.9161253998
251,404037.3496124338
266,0.0
841,6614416.295735539
2,4, 1, 4, 0,19, 0.00,60.00,Thursday
12,6071519.49693793
24,103863.12985038012
103,1401897.8211611738
140,175002.23921355338
155,0.0
170,565336.2453403532
185,0.0
200,268008.26551532259
215,0.0
236,1903266.749356607
251,480270.8118034591
266,0.0
841,6765214.88888393
2,4, 1, 4, 0,20, 0.00,60.00,Thursday
12,7120729.56018922
24,105153.55552703563
103,1419315.406661243
140,175002.23921355338
155,0.0
170,289916.02325146328
185,0.0
200,257287.9348947098
215,0.0
236,2024109.08264909
251,510764.1966798692
266,0.0
841,6306494.76888213
2,4, 1, 4, 0,21, 0.00,60.00,Thursday
12,5116341.046278359
24,87299.80415468643
103,1178333.499178719
140,178433.65566872093
155,0.0
170,169117.68023001997
185,0.0
200,251927.7695844031
215,0.0
236,2144951.415941573
251,541257.5815562792
266,0.0
841,6853458.584530914
2,4, 1, 4, 0,22, 0.00,60.00,Thursday
12,4404584.142930486
24,65866.14221702153
103,889031.5687130868
140,185296.4885790565
155,0.0
170,120798.34302144323
185,0.0
200,246567.6042740967
215,0.0
236,2084530.2492953318
251,526010.8891180742
266,0.0
841,7055065.890426677
2,4, 1, 4, 0,23, 0.00,60.00,Thursday
12,5049063.646942978
24,56931.15998532923
103,768431.1964658087
140,150982.32402737934
155,0.0
170,77310.93953372377
185,0.0
200,235847.27365348399
215,0.0
236,1782424.4160641244
251,449777.426927049
266,0.0
841,7717571.0091622299
2,4, 1, 4, 0,24, 0.00,60.00,Thursday
12,2679895.089281693
24,26450.161482620908
103,357012.38548524
140,82353.994924025
155,0.0
170,53151.2709294349
185,0.0
200,219766.7777225645
215,0.0
236,1510529.1661560375
251,381167.31095512627
266,0.0
841,6989537.6515471399
2,5, 1, 5, 0, 1, 0.00,60.00,Friday
12,2332124.321675106
24,13133.634023603743
103,177271.88606911564
140,34314.164551677175
155,0.0
170,33823.53604600406
185,0.0
200,214406.6124122581
215,0.0
236,1208423.3329248299
251,304933.84876410107
266,0.0
841,8700404.472362826
2,5, 1, 5, 0, 2, 0.00,60.00,Friday
12,1915602.0115354816
24,7880.180414162213
103,106363.13164146894
140,20588.498731006275
155,0.0
170,33823.53604600406
185,0.0
200,209046.44710195173
215,0.0
236,1117791.5829554678
251,282063.8101067935
266,0.0
841,7243187.284703206
2,5, 1, 5, 0, 3, 0.00,60.00,Friday
12,1846299.7423639969
24,5253.453609441477
103,70908.75442764597
140,13725.665820670842
155,0.0
170,19327.734883430905
185,0.0
200,203686.28179164505
215,0.0
236,1117791.5829554678
251,282063.8101067935
266,0.0
841,7006948.957019748
2,5, 1, 5, 0, 4, 0.00,60.00,Friday
12,1981130.341405733
24,5253.453609441477
103,70908.75442764597
140,6862.8329103354349
155,0.0
170,19327.734883430905
185,0.0
200,198326.11648133864
215,0.0
236,1087580.999632347
251,274440.4638876909
266,0.0
841,7263396.6154021029
2,5, 1, 5, 0, 5, 0.00,60.00,Friday