Program Version,EnergyPlus, Version 9.3.0-baff08990c, YMD=2020.06.05 10:53
1,5,Environment Title[],Latitude[deg],Longitude[deg],Time Zone[],Elevation[m]
2,8,Day of Simulation[],Month[],Day of Month[],DST Indicator[1=yes 0=no],Hour[],StartMinute[],EndMinute[],DayType
3,5,Cumulative Day of Simulation[],Month[],Day of Month[],DST Indicator[1=yes 0=no],DayType  ! When Daily Meters Requested
4,2,Cumulative Days of Simulation[],Month[]  ! When Monthly Meters Requested
5,1,Cumulative Days of Simulation[] ! When Run Period Meters Requested
6,1,Calendar Year of Simulation[] ! When Annual Meters Requested
21,11,Electricity:Facility [J] !RunPeriod [Value,Min,Month,Day,Hour,Minute,Max,Month,Day,Hour,Minute]
893,11,Gas:Facility [J] !RunPeriod [Value,Min,Month,Day,Hour,Minute,Max,Month,Day,Hour,Minute]
112,11,interior lighting:InteriorLights:Electricity [J] !RunPeriod [Value,Min,Month,Day,Hour,Minute,Max,Month,Day,Hour,Minute]
33,11,ExteriorLights:Electricity [J] !RunPeriod [Value,Min,Month,Day,Hour,Minute,Max,Month,Day,Hour,Minute]
224,11,mech vent:InteriorEquipment:Electricity [J] !RunPeriod [Value,Min,Month,Day,Hour,Minute,Max,Month,Day,Hour,Minute]
275,11,whole house fan:InteriorEquipment:Electricity [J] !RunPeriod [Value,Min,Month,Day,Hour,Minute,Max,Month,Day,Hour,Minute]
209,11,fridge:InteriorEquipment:Electricity [J] !RunPeriod [Value,Min,Month,Day,Hour,Minute,Max,Month,Day,Hour,Minute]
194,11,dishwasher:InteriorEquipment:Electricity [J] !RunPeriod [Value,Min,Month,Day,Hour,Minute,Max,Month,Day,Hour,Minute]
164,11,clothes washer:InteriorEquipment:Electricity [J] !RunPeriod [Value,Min,Month,Day,Hour,Minute,Max,Month,Day,Hour,Minute]
149,11,clothes dryer:InteriorEquipment:Electricity [J] !RunPeriod [Value,Min,Month,Day,Hour,Minute,Max,Month,Day,Hour,Minute]
179,11,cooking range:InteriorEquipment:Electricity [J] !RunPeriod [Value,Min,Month,Day,Hour,Minute,Max,Month,Day,Hour,Minute]
260,11,misc tv:InteriorEquipment:Electricity [J] !RunPeriod [Value,Min,Month,Day,Hour,Minute,Max,Month,Day,Hour,Minute]
245,11,misc plug loads:InteriorEquipment:Electricity [J] !RunPeriod [Value,Min,Month,Day,Hour,Minute,Max,Month,Day,Hour,Minute]
17,1,Electricity:Facility [J] !Hourly
889,1,Gas:Facility [J] !Hourly
108,1,interior lighting:InteriorLights:Electricity [J] !Hourly
29,1,ExteriorLights:Electricity [J] !Hourly
220,1,mech vent:InteriorEquipment:Electricity [J] !Hourly
271,1,whole house fan:InteriorEquipment:Electricity [J] !Hourly
205,1,fridge:InteriorEquipment:Electricity [J] !Hourly
190,1,dishwasher:InteriorEquipment:Electricity [J] !Hourly
160,1,clothes washer:InteriorEquipment:Electricity [J] !Hourly
145,1,clothes dryer:InteriorEquipment:Electricity [J] !Hourly
175,1,cooking range:InteriorEquipment:Electricity [J] !Hourly
256,1,misc tv:InteriorEquipment:Electricity [J] !Hourly
241,1,misc plug loads:InteriorEquipment:Electricity [J] !Hourly
End of Data Dictionary
1,RUN PERIOD 1,  39.83,-104.65,  -7.00,1650.00
2,1, 1, 1, 0, 1, 0.00,60.00,Monday
17,2390871.084442526
29,13133.634023603743
108,177271.88606911564
145,43768.218014775535
160,0.0
175,33823.53604600406
190,0.0
205,214406.6124122581
220,0.0
241,1208423.3329248299
256,304933.84876410107
271,0.0
889,11286784.124442652
2,1, 1, 1, 0, 2, 0.00,60.00,Monday
17,2230008.688874562
29,7880.180414162213
108,106363.13164146894
145,26260.930808865287
160,0.0
175,33823.53604600406
190,0.0
205,209046.44710195173
220,0.0
241,1117791.5829554678
256,282063.8101067935
271,0.0
889,13997850.137862366
2,1, 1, 1, 0, 3, 0.00,60.00,Monday
17,2188320.3683461595
29,5253.453609441477
108,70908.75442764597
145,17507.28720591018
160,0.0
175,19327.734883430905
190,0.0
205,203686.28179164505
220,0.0
241,1117791.5829554678
256,282063.8101067935
271,0.0
889,15309721.262111232
2,1, 1, 1, 0, 4, 0.00,60.00,Monday
17,2155015.4241403297
29,5253.453609441477
108,70908.75442764597
145,8753.643602955108
160,0.0
175,19327.734883430905
190,0.0
205,198326.11648133864
220,0.0
241,1087580.999632347
256,274440.4638876909
271,0.0
889,16287905.34624293
2,1, 1, 1, 0, 5, 0.00,60.00,Monday
17,2075888.3186540015
29,5840.658207808643
108,78834.5780400541
145,17507.28720591018
160,0.0
175,33823.53604600406
190,0.0
205,192965.95117103228
220,0.0
241,996949.2496629846
256,251570.42523038339
271,0.0
889,16706214.463282614
2,1, 1, 1, 0, 6, 0.00,60.00,Monday
17,2356063.566516303
29,16026.080925005024
108,216312.83365792936
145,26260.930808865287
160,0.0
175,53151.2709294349
190,0.0
205,192965.95117103228
220,0.0
241,1087580.999632347
256,274440.4638876909
271,0.0
889,16230229.358406684
2,1, 1, 1, 0, 7, 0.00,60.00,Monday
17,3046032.2956605709
29,37624.814061416066
108,507842.8209344053
145,70029.14882364079
160,0.0
175,120798.34302144323
190,0.0
205,203686.28179164505
220,0.0
241,1299055.0828941924
256,327803.8874214086
271,0.0
889,15698546.425483594
2,1, 1, 1, 0, 8, 0.00,60.00,Monday
17,3486258.7619460897
29,47613.232268258325
108,642661.9982612429
145,140058.29764728159
160,0.0
175,202941.21627602424
190,0.0
205,214406.6124122581
220,0.0
241,1419897.4161866753
256,358297.2722978187
271,0.0
889,14711631.055275526
2,1, 1, 1, 0, 9, 0.00,60.00,Monday
17,11237601.110693537
29,50599.49322596624
108,682969.2057954291
145,210087.44647092239
160,2119432.8482980139
175,222268.95115945536
190,0.0
205,219766.7777225645
220,0.0
241,1027159.8329861055
256,259193.77144948589
271,0.0
889,12830347.410404252
2,1, 1, 1, 0,10, 0.00,60.00,Monday
17,2283818.0160124807
29,52012.74062072695
108,702044.5836155546
145,297623.88250047308
160,0.0
175,231932.81860117054
190,0.0
205,219766.7777225645
220,0.0
241,694843.4164317773
256,175336.9630393581
271,0.0
889,7891530.6944089629
2,1, 1, 1, 0,11, 0.00,60.00,Monday
17,2654462.404859063
29,50598.550021997624
108,682956.4748524042
145,341392.10051524869
160,0.0
175,202941.21627602424
190,0.0
205,214406.6124122581
220,0.0
241,725053.9997548979
256,182960.30925846063
271,0.0
889,3890802.1026375207
2,1, 1, 1, 0,12, 0.00,60.00,Monday
17,2673060.08112245
29,48639.22729229295
108,656510.4177223966
145,354522.5659196813
160,0.0
175,241596.68604288577
190,0.0
205,214406.6124122581
220,0.0
241,755264.5830780187
256,190583.65547756313
271,0.0
889,1654705.7685053214
2,1, 1, 1, 0,13, 0.00,60.00,Monday
17,3826685.4072489675
29,47225.03669356352
108,637422.3089592449
145,323884.81330933838
160,0.0
175,275420.22208889006
190,0.0
205,225126.94303287086
220,0.0
241,725053.9997548979
256,182960.30925846063
271,0.0
889,1590437.6951426538
2,1, 1, 1, 0,14, 0.00,60.00,Monday
17,2610680.264444637
29,46808.89036836303
108,631805.352995919
145,293247.0606989958
160,0.0
175,222268.95115945536
190,0.0
205,225126.94303287086
220,0.0
241,845896.3330473809
256,213453.69413487073
271,0.0
889,1875815.906411251
2,1, 1, 1, 0,15, 0.00,60.00,Monday
17,3987248.2489945886
29,47538.264305590754
108,641650.1144130287
145,249478.84268422027
160,0.0
175,275420.22208889006
190,0.0
205,225126.94303287086
220,0.0
241,936528.0830167432
256,236323.73279217829
271,0.0
889,1322546.8501063702
2,1, 1, 1, 0,16, 0.00,60.00,Monday
17,4415434.628800431
29,51988.5350477318
108,701717.8676761182
145,266986.12989013016
160,410235.39463946627
175,212605.08371773945
190,0.0
205,219766.7777225645
220,0.0
241,966738.6663398639
256,243947.07901128083
271,0.0
889,1525000.8123370733
2,1, 1, 1, 0,17, 0.00,60.00,Monday
17,3488056.6581348639
29,63845.92288129627
108,861763.5565792262
145,240725.19908126497
160,0.0
175,444537.90231891
190,0.0
205,235847.27365348399
220,0.0
241,1178212.7496017093
256,297310.5025449985
271,0.0
889,3700126.932985877
2,1, 1, 1, 0,18, 0.00,60.00,Monday
17,5977351.905251348
29,84670.86016062966
108,1142849.1953402723
145,236348.3772797876
160,0.0
175,724790.058128658
190,0.0
205,257287.9348947098
220,0.0
241,1601160.9161253998
256,404037.3496124338
271,0.0
889,6531594.046223331
2,1, 1, 1, 0,19, 0.00,60.00,Monday
17,12891239.093119124
29,103863.12985038012
108,1401897.8211611738
145,223217.911875355
160,0.0
175,565336.2453403532
190,0.0
205,268008.26551532259
220,0.0
241,1903266.749356607
256,480270.8118034591
271,0.0
889,8829886.647561364
2,1, 1, 1, 0,20, 0.00,60.00,Monday
17,5643638.254364252
29,105153.55552703563
108,1419315.406661243
145,223217.911875355
160,0.0
175,289916.02325146328
190,0.0
205,257287.9348947098
220,0.0
241,2024109.08264909
256,510764.1966798692
271,0.0
889,9777331.576617044
2,1, 1, 1, 0,21, 0.00,60.00,Monday
17,4905049.081201508
29,87299.80415468643
108,1178333.499178719
145,227594.73367683232
160,0.0
175,169117.68023001997
190,0.0
205,251927.7695844031
220,0.0
241,2144951.415941573
256,541257.5815562792
271,0.0
889,10136744.391540399
2,1, 1, 1, 0,22, 0.00,60.00,Monday
17,4560366.470023893
29,65866.14221702153
108,889031.5687130868
145,236348.3772797876
160,0.0
175,120798.34302144323
190,0.0
205,246567.6042740967
220,0.0
241,2084530.2492953318
256,526010.8891180742
271,0.0
889,11082323.917766905
2,1, 1, 1, 0,23, 0.00,60.00,Monday
17,5120622.380372192
29,56931.15998532923
108,768431.1964658087
145,192580.15926501208
160,0.0
175,77310.93953372377
190,0.0
205,235847.27365348399
220,0.0
241,1782424.4160641244
256,449777.426927049
271,0.0
889,12443011.05892821
2,1, 1, 1, 0,24, 0.00,60.00,Monday
17,3042609.291371759
29,26450.161482620908
108,357012.38548524
145,105043.723235461
160,0.0
175,53151.2709294349
190,0.0
205,219766.7777225645
220,0.0
241,1510529.1661560375
256,381167.31095512627
271,0.0
889,15165971.352823394
2,2, 1, 2, 0, 1, 0.00,60.00,Tuesday
17,2486534.2134191587
29,13133.634023603743
108,177271.88606911564
145,43768.218014775535
160,0.0
175,33823.53604600406
190,0.0
205,214406.6124122581
220,0.0
241,1208423.3329248299
256,304933.84876410107
271,0.0
889,16306211.413616974
2,2, 1, 2, 0, 2, 0.00,60.00,Tuesday
17,2276664.9992801409
29,7880.180414162213
108,106363.13164146894
145,26260.930808865287
160,0.0
175,33823.53604600406
190,0.0
205,209046.44710195173
220,0.0
241,1117791.5829554678
256,282063.8101067935
271,0.0
889,16445898.410663031
2,2, 1, 2, 0, 3, 0.00,60.00,Tuesday
17,2212569.911494328
29,5253.453609441477
108,70908.75442764597
145,17507.28720591018
160,0.0
175,19327.734883430905
190,0.0
205,203686.28179164505
220,0.0
241,1117791.5829554678
256,282063.8101067935
271,0.0
889,16582090.459418808
2,2, 1, 2, 0, 4, 0.00,60.00,Tuesday
17,2183741.7224843467
29,5253.453609441477
108,70908.75442764597
145,8753.643602955108
160,0.0
175,19327.734883430905
190,0.0
205,198326.11648133864
220,0.0
241,1087580.999632347
256,274440.4638876909
271,0.0
889,17795169.088997414
2,2, 1, 2, 0, 5, 0.00,60.00,Tuesday
17,2072149.830613093
29,5840.658207808643
108,78834.5780400541
145,17507.28720591018
160,0.0
175,33823.53604600406
190,0.0
205,192965.95117103228
220,0.0
241,996949.2496629846
256,251570.42523038339
271,0.0
889,16510056.66357933
2,2, 1, 2, 0, 6, 0.00,60.00,Tuesday
17,2364258.074561499
29,16026.080925005024
108,216312.83365792936
145,26260.930808865287
160,0.0
175,53151.2709294349
190,0.0
205,192965.95117103228
220,0.0
241,1087580.999632347
256,274440.4638876909
271,0.0
889,16660193.731759604
2,2, 1, 2, 0, 7, 0.00,60.00,Tuesday
17,3044473.152884395
29,37624.814061416066
108,507842.8209344053
145,70029.14882364079
160,0.0
175,120798.34302144323
190,0.0
205,203686.28179164505
220,0.0
241,1299055.0828941924
256,327803.8874214086
271,0.0
889,15616738.48252612
2,2, 1, 2, 0, 8, 0.00,60.00,Tuesday
17,4645985.375206394
29,47613.232268258325
108,642661.9982612429
145,140058.29764728159
160,0.0
175,202941.21627602424
190,0.0
205,214406.6124122581
220,0.0
241,1419897.4161866753
256,358297.2722978187
271,0.0
889,13896384.173199298
2,2, 1, 2, 0, 9, 0.00,60.00,Tuesday
17,3008467.429897079
29,50599.49322596624
108,682969.2057954291
145,210087.44647092239
160,0.0
175,222268.95115945536
190,0.0
205,219766.7777225645
220,0.0
241,1027159.8329861055
256,259193.77144948589
271,0.0
889,12510043.962608874
2,2, 1, 2, 0,10, 0.00,60.00,Tuesday
17,3943613.7887797967
29,52012.74062072695
108,702044.5836155546
145,297623.88250047308
160,0.0
175,231932.81860117054
190,0.0
205,219766.7777225645
220,0.0
241,694843.4164317773
256,175336.9630393581
271,0.0
889,8133258.475071306
2,2, 1, 2, 0,11, 0.00,60.00,Tuesday
17,3765078.8739477156
29,50598.550021997624
108,682956.4748524042
145,341392.10051524869
160,0.0
175,202941.21627602424
190,0.0
205,214406.6124122581
220,0.0
241,725053.9997548979
256,182960.30925846063
271,0.0
889,3815361.039388692
2,2, 1, 2, 0,12, 0.00,60.00,Tuesday
17,2580267.4487810016
29,48639.22729229295
108,656510.4177223966
145,354522.5659196813
160,0.0
175,241596.68604288577
190,0.0
205,214406.6124122581
220,0.0
241,755264.5830780187
256,190583.65547756313
271,0.0
889,1172571.689515632
2,2, 1, 2, 0,13, 0.00,60.00,Tuesday
17,3752138.3607521739
29,47225.03669356352
108,637422.3089592449
145,323884.81330933838
160,0.0
175,275420.22208889006
190,0.0
205,225126.94303287086
220,0.0
241,725053.9997548979
256,182960.30925846063
271,0.0
889,0.0
2,2, 1, 2, 0,14, 0.00,60.00,Tuesday
17,2578016.334038064
29,46808.89036836303
108,631805.352995919
145,293247.0606989958
160,0.0
175,222268.95115945536
190,0.0
205,225126.94303287086
220,0.0
241,845896.3330473809
256,213453.69413487073
271,0.0
889,0.0
2,2, 1, 2, 0,15, 0.00,60.00,Tuesday
17,2612066.202333522
29,47538.264305590754
108,641650.1144130287
145,249478.84268422027
160,0.0
175,275420.22208889006
190,0.0
205,225126.94303287086
220,0.0
241,936528.0830167432
256,236323.73279217829
271,0.0
889,0.0
2,2, 1, 2, 0,16, 0.00,60.00,Tuesday
17,4014193.9484477725
29,51988.5350477318
108,701717.8676761182
145,266986.12989013016
160,0.0
175,212605.08371773945
190,0.0
205,219766.7777225645
220,0.0
241,966738.6663398639
256,243947.07901128083
271,0.0
889,0.0
2,2, 1, 2, 0,17, 0.00,60.00,Tuesday
17,3439826.074426298
29,63845.92288129627
108,861763.5565792262
145,240725.19908126497
160,0.0
175,444537.90231891
190,0.0
205,235847.27365348399
220,0.0
241,1178212.7496017093
256,297310.5025449985
271,0.0
889,1009954.7933856018
2,2, 1, 2, 0,18, 0.00,60.00,Tuesday
17,4680099.460088217
29,84670.86016062966
108,1142849.1953402723
145,236348.3772797876
160,0.0
175,724790.058128658
190,0.0
205,257287.9348947098
220,0.0
241,1601160.9161253998
256,404037.3496124338
271,0.0
889,2568647.960873858
2,2, 1, 2, 0,19, 0.00,60.00,Tuesday
17,5213095.433295985
29,103863.12985038012
108,1401897.8211611738
145,223217.911875355
160,0.0
175,565336.2453403532
190,0.0
205,268008.26551532259
220,0.0
241,1903266.749356607
256,480270.8118034591
271,0.0
889,4577178.548068302
2,2, 1, 2, 0,20, 0.00,60.00,Tuesday
17,6256935.660142273
29,105153.55552703563
108,1419315.406661243
145,223217.911875355
160,0.0
175,289916.02325146328
190,0.0
205,257287.9348947098
220,0.0
241,2024109.08264909
256,510764.1966798692
271,0.0
889,5808520.735108209
2,2, 1, 2, 0,21, 0.00,60.00,Tuesday
17,4842853.744027203
29,87299.80415468643
108,1178333.499178719
145,227594.73367683232
160,0.0
175,169117.68023001997
190,0.0
205,251927.7695844031
220,0.0
241,2144951.415941573
256,541257.5815562792
271,0.0
889,7433194.809870372
2,2, 1, 2, 0,22, 0.00,60.00,Tuesday
17,4493669.926847391
29,65866.14221702153
108,889031.5687130868
145,236348.3772797876
160,0.0
175,120798.34302144323
190,0.0
205,246567.6042740967
220,0.0
241,2084530.2492953318
256,526010.8891180742
271,0.0
889,7582768.211246925
2,2, 1, 2, 0,23, 0.00,60.00,Tuesday
17,3885026.839202018
29,56931.15998532923
108,768431.1964658087
145,192580.15926501208
160,0.0
175,77310.93953372377
190,0.0
205,235847.27365348399
220,0.0
241,1782424.4160641244
256,449777.426927049
271,0.0
889,7436246.989529293
2,2, 1, 2, 0,24, 0.00,60.00,Tuesday
17,7441561.269865846
29,26450.161482620908
108,357012.38548524
145,105043.723235461
160,0.0
175,53151.2709294349
190,0.0
205,219766.7777225645
220,0.0
241,1510529.1661560375
256,381167.31095512627
271,0.0
889,8969947.217669279
2,3, 1, 3, 0, 1, 0.00,60.00,Wednesday
17,2060642.6932387546
29,13133.634023603743
108,177271.88606911564
145,43768.218014775535
160,0.0
175,33823.53604600406
190,0.0
205,214406.6124122581
220,0.0
241,1208423.3329248299
256,304933.84876410107
271,0.0
889,10205284.225930145
2,3, 1, 3, 0, 2, 0.00,60.00,Wednesday
17,2180022.1655155818
29,7880.180414162213
108,106363.13164146894
145,26260.930808865287
160,0.0
175,33823.53604600406
190,0.0
205,209046.44710195173
220,0.0
241,1117791.5829554678
256,282063.8101067935
271,0.0
889,11375066.186270083
2,3, 1, 3, 0, 3, 0.00,60.00,Wednesday
17,2130032.7079216467
29,5253.453609441477
108,70908.75442764597
145,17507.28720591018
160,0.0
175,19327.734883430905
190,0.0
205,203686.28179164505
220,0.0
241,1117791.5829554678
256,282063.8101067935
271,0.0
889,12251378.13151603
2,3, 1, 3, 0, 4, 0.00,60.00,Wednesday
17,3245152.5105997838
29,5253.453609441477
108,70908.75442764597
145,8753.643602955108
160,0.0
175,19327.734883430905
190,0.0
205,198326.11648133864
220,0.0
241,1087580.999632347
256,274440.4638876909
271,0.0
889,13314730.20773091
2,3, 1, 3, 0, 5, 0.00,60.00,Wednesday
17,1945648.1414692533
29,5840.658207808643
108,78834.5780400541
145,17507.28720591018
160,0.0
175,33823.53604600406
190,0.0
205,192965.95117103228
220,0.0
241,996949.2496629846
256,251570.42523038339
271,0.0
889,14070947.3009401
2,3, 1, 3, 0, 6, 0.00,60.00,Wednesday
17,2321780.201207001
29,16026.080925005024
108,216312.83365792936
145,26260.930808865287
160,0.0
175,53151.2709294349
190,0.0
205,192965.95117103228
220,0.0
241,1087580.999632347
256,274440.4638876909
271,0.0
889,14431387.304638252
2,3, 1, 3, 0, 7, 0.00,60.00,Wednesday
17,3008024.578003235
29,37624.814061416066
108,507842.8209344053
145,70029.14882364079
160,0.0
175,120798.34302144323
190,0.0
205,203686.28179164505
220,0.0
241,1299055.0828941924
256,327803.8874214086
271,0.0
889,13704288.26929194
2,3, 1, 3, 0, 8, 0.00,60.00,Wednesday
17,3464520.0976816338
29,47613.232268258325
108,642661.9982612429
145,140058.29764728159
160,0.0
175,202941.21627602424
190,0.0
205,214406.6124122581
220,0.0
241,1419897.4161866753
256,358297.2722978187
271,0.0
889,13571007.224480056
2,3, 1, 3, 0, 9, 0.00,60.00,Wednesday
17,3045340.926964951
29,50599.49322596624
108,682969.2057954291
145,210087.44647092239
160,0.0
175,222268.95115945536
190,0.0
205,219766.7777225645
220,0.0
241,1027159.8329861055
256,259193.77144948589
271,0.0
889,10142177.636479982
2,3, 1, 3, 0,10, 0.00,60.00,Wednesday
17,14245445.183338162
29,52012.74062072695
108,702044.5836155546
145,297623.88250047308
160,0.0
175,231932.81860117054
190,0.0
205,219766.7777225645
220,0.0
241,694843.4164317773
256,175336.9630393581
271,0.0
889,8118113.097135829
2,3, 1, 3, 0,11, 0.00,60.00,Wednesday
17,11244364.767661948
29,50598.550021997624
108,682956.4748524042
145,341392.10051524869
160,0.0
175,202941.21627602424
190,0.0
205,214406.6124122581
220,0.0
241,725053.9997548979
256,182960.30925846063
271,0.0
889,4867052.474836685
2,3, 1, 3, 0,12, 0.00,60.00,Wednesday
17,2463656.8831333147
29,48639.22729229295
108,656510.4177223966
145,354522.5659196813
160,0.0
175,241596.68604288577
190,0.0
205,214406.6124122581
220,0.0
241,755264.5830780187
256,190583.65547756313
271,0.0
889,2890210.6633006085
2,3, 1, 3, 0,13, 0.00,60.00,Wednesday
17,2614257.7146144707
29,47225.03669356352
108,637422.3089592449
145,323884.81330933838
160,0.0
175,275420.22208889006
190,0.0
205,225126.94303287086
220,0.0
241,725053.9997548979
256,182960.30925846063
271,0.0
889,2442820.6080671285
2,3, 1, 3, 0,14, 0.00,60.00,Wednesday
17,2720529.335980795
29,46808.89036836303
108,631805.352995919
145,293247.0606989958
160,0.0
175,222268.95115945536
190,0.0
205,225126.94303287086
220,0.0
241,845896.3330473809
256,213453.69413487073
271,0.0
889,3249042.0790900776
2,3, 1, 3, 0,15, 0.00,60.00,Wednesday
17,2838002.108984059
29,47538.264305590754
108,641650.1144130287
145,249478.84268422027
160,0.0
175,275420.22208889006
190,0.0
205,225126.94303287086
220,0.0
241,936528.0830167432
256,236323.73279217829
271,0.0
889,2410248.8164587619
2,3, 1, 3, 0,16, 0.00,60.00,Wednesday
17,2935728.2444646509
29,51988.5350477318
108,701717.8676761182
145,266986.12989013016
160,0.0
175,212605.08371773945
190,0.0
205,219766.7777225645
220,0.0
241,966738.6663398639
256,243947.07901128083
271,0.0
889,4826074.742480709
2,3, 1, 3, 0,17, 0.00,60.00,Wednesday
17,3644769.0597603099
29,63845.92288129627
108,861763.5565792262
145,240725.19908126497
160,0.0
175,444537.90231891
190,0.0
205,235847.27365348399
220,0.0
241,1178212.7496017093
256,297310.5025449985
271,0.0
889,7478311.299827555
2,3, 1, 3, 0,18, 0.00,60.00,Wednesday
17,5954505.597169682
29,84670.86016062966
108,1142849.1953402723
145,236348.3772797876
160,0.0
175,724790.058128658
190,0.0
205,257287.9348947098
220,0.0
241,1601160.9161253998
256,404037.3496124338
271,0.0
889,9334789.265036095
2,3, 1, 3, 0,19, 0.00,60.00,Wednesday
17,6420967.68952083
29,103863.12985038012
108,1401897.8211611738
145,223217.911875355
160,0.0
175,565336.2453403532
190,0.0
205,268008.26551532259
220,0.0
241,1903266.749356607
256,480270.8118034591
271,0.0
889,9592778.154982189
2,3, 1, 3, 0,20, 0.00,60.00,Wednesday
17,11311166.376624197
29,105153.55552703563
108,1419315.406661243
145,223217.911875355
160,0.0
175,289916.02325146328
190,1998909.4202885377
205,257287.9348947098
220,0.0
241,2024109.08264909
256,510764.1966798692
271,0.0
889,10813595.024912112
2,3, 1, 3, 0,21, 0.00,60.00,Wednesday
17,4774684.324673391
29,87299.80415468643
108,1178333.499178719
145,227594.73367683232
160,0.0
175,169117.68023001997
190,0.0
205,251927.7695844031
220,0.0
241,2144951.415941573
256,541257.5815562792
271,0.0
889,12972747.116893068
2,3, 1, 3, 0,22, 0.00,60.00,Wednesday
17,4629875.07480293
29,65866.14221702153
108,889031.5687130868
145,236348.3772797876
160,0.0
175,120798.34302144323
190,0.0
205,246567.6042740967
220,0.0
241,2084530.2492953318
256,526010.8891180742
271,0.0
889,14870674.909413727
2,3, 1, 3, 0,23, 0.00,60.00,Wednesday
17,4070316.8023561027
29,56931.15998532923
108,768431.1964658087
145,192580.15926501208
160,0.0
175,77310.93953372377
190,0.0
205,235847.27365348399
220,0.0
241,1782424.4160641244
256,449777.426927049
271,0.0
889,17158378.258023558
2,3, 1, 3, 0,24, 0.00,60.00,Wednesday
17,4358338.729823134
29,26450.161482620908
108,357012.38548524
145,105043.723235461
160,0.0
175,53151.2709294349
190,0.0
205,219766.7777225645
220,0.0
241,1510529.1661560375
256,381167.31095512627
271,0.0
889,19156990.307158665
2,4, 1, 4, 0, 1, 0.00,60.00,Thursday
17,2495155.8792883518
29,13133.634023603743
108,177271.88606911564
145,43768.218014775535
160,0.0
175,33823.53604600406
190,0.0
205,214406.6124122581
220,0.0
241,1208423.3329248299
256,304933.84876410107
271,0.0
889,21005733.199732368
2,4, 1, 4, 0, 2, 0.00,60.00,Thursday
17,2421384.6188971109
29,7880.180414162213
108,106363.13164146894
145,26260.930808865287
160,0.0
175,33823.53604600406
190,0.0
205,209046.44710195173
220,0.0
241,1117791.5829554678
256,282063.8101067935
271,0.0
889,24039311.000813478
2,4, 1, 4, 0, 3, 0.00,60.00,Thursday
17,2378232.4130344528
29,5253.453609441477
108,70908.75442764597
145,17507.28720591018
160,0.0
175,19327.734883430905
190,0.0
205,203686.28179164505
220,0.0
241,1117791.5829554678
256,282063.8101067935
271,0.0
889,25274372.323066608
2,4, 1, 4, 0, 4, 0.00,60.00,Thursday
17,2326162.4980823888
29,5253.453609441477
108,70908.75442764597
145,8753.643602955108
160,0.0
175,19327.734883430905
190,0.0
205,198326.11648133864
220,0.0
241,1087580.999632347
256,274440.4638876909
271,0.0
889,25267961.744115395
2,4, 1, 4, 0, 5, 0.00,60.00,Thursday
17,3404536.068094058
29,5840.658207808643
108,78834.5780400541
145,17507.28720591018
160,0.0
175,33823.53604600406
190,0.0
205,192965.95117103228
220,0.0
241,996949.2496629846
256,251570.42523038339
271,0.0
889,25418931.230562644
2,4, 1, 4, 0, 6, 0.00,60.00,Thursday
17,2443264.759931664
29,16026.080925005024
108,216312.83365792936
145,26260.930808865287
160,0.0
175,53151.2709294349
190,0.0
205,192965.95117103228
220,0.0
241,1087580.999632347
256,274440.4638876909
271,0.0
889,25061894.31710032
2,4, 1, 4, 0, 7, 0.00,60.00,Thursday
17,3201208.3945275458
29,37624.814061416066
108,507842.8209344053
145,70029.14882364079
160,0.0
175,120798.34302144323
190,0.0
205,203686.28179164505
220,0.0
241,1299055.0828941924
256,327803.8874214086
271,0.0
889,23840608.61404913
2,4, 1, 4, 0, 8, 0.00,60.00,Thursday
17,4784442.169408029
29,47613.232268258325
108,642661.9982612429
145,140058.29764728159
160,0.0
175,202941.21627602424
190,0.0
205,214406.6124122581
220,0.0
241,1419897.4161866753
256,358297.2722978187
271,0.0
889,21079339.35415287
2,4, 1, 4, 0, 9, 0.00,60.00,Thursday
17,12588911.05030657
29,50599.49322596624
108,682969.2057954291
145,210087.44647092239
160,0.0
175,222268.95115945536
190,0.0
205,219766.7777225645
220,0.0
241,1027159.8329861055
256,259193.77144948589
271,0.0
889,18694129.086049379
2,4, 1, 4, 0,10, 0.00,60.00,Thursday
17,4643556.428198671
29,52012.74062072695
108,702044.5836155546
145,297623.88250047308
160,0.0
175,231932.81860117054
190,0.0
205,219766.7777225645
220,0.0
241,694843.4164317773
256,175336.9630393581
271,0.0
889,14348536.413117866
2,4, 1, 4, 0,11, 0.00,60.00,Thursday
17,2628803.559599481
29,50598.550021997624
108,682956.4748524042
145,341392.10051524869
160,0.0
175,202941.21627602424
190,0.0
205,214406.6124122581
220,0.0
241,725053.9997548979
256,182960.30925846063
271,0.0
889,11611889.529760967
2,4, 1, 4, 0,12, 0.00,60.00,Thursday
17,8012493.173625184
29,48639.22729229295
108,656510.4177223966
145,354522.5659196813
160,0.0
175,241596.68604288577
190,0.0
205,214406.6124122581
220,0.0
241,755264.5830780187
256,190583.65547756313
271,0.0
889,10571077.298694244
2,4, 1, 4, 0,13, 0.00,60.00,Thursday
17,3008221.2272765275
29,47225.03669356352
108,637422.3089592449
145,323884.81330933838
160,0.0
175,275420.22208889006
190,0.0
205,225126.94303287086
220,0.0
241,725053.9997548979
256,182960.30925846063
271,0.0
889,8457839.151195275
2,4, 1, 4, 0,14, 0.00,60.00,Thursday
17,2755339.5343501979
29,46808.89036836303
108,631805.352995919
145,293247.0606989958
160,0.0
175,222268.95115945536
190,0.0
205,225126.94303287086
220,0.0
241,845896.3330473809
256,213453.69413487073
271,0.0
889,7311008.058538164
2,4, 1, 4, 0,15, 0.00,60.00,Thursday
17,2728357.3012898389
29,47538.264305590754
108,641650.1144130287
145,249478.84268422027
160,0.0
175,275420.22208889006
190,0.0
205,225126.94303287086
220,0.0
241,936528.0830167432
256,236323.73279217829
271,0.0
889,6101773.189250292
2,4, 1, 4, 0,16, 0.00,60.00,Thursday
17,3957321.2928641296
29,51988.5350477318
108,701717.8676761182
145,266986.12989013016
160,0.0
175,212605.08371773945
190,0.0
205,219766.7777225645
220,0.0
241,966738.6663398639
256,243947.07901128083
271,0.0
889,6958654.946980482
2,4, 1, 4, 0,17, 0.00,60.00,Thursday
17,3546605.3774737955
29,63845.92288129627
108,861763.5565792262
145,240725.19908126497
160,0.0
175,444537.90231891
190,0.0
205,235847.27365348399
220,0.0
241,1178212.7496017093
256,297310.5025449985
271,0.0
889,6577885.894991778
2,4, 1, 4, 0,18, 0.00,60.00,Thursday
17,5011239.554906666
29,84670.86016062966
108,1142849.1953402723
145,236348.3772797876
160,0.0
175,724790.058128658
190,0.0
205,257287.9348947098
220,0.0
241,1601160.9161253998
256,404037.3496124338
271,0.0
889,6403459.818350834
2,4, 1, 4, 0,19, 0.00,60.00,Thursday
17,6114395.437022708
29,103863.12985038012
108,1401897.8211611738
145,223217.911875355
160,0.0
175,565336.2453403532
190,0.0
205,268008.26551532259
220,0.0
241,1903266.749356607
256,480270.8118034591
271,0.0
889,6541256.357135618
2,4, 1, 4, 0,20, 0.00,60.00,Thursday
17,7165406.643752855
29,105153.55552703563
108,1419315.406661243
145,223217.911875355
160,0.0
175,289916.02325146328
190,0.0
205,257287.9348947098
220,0.0
241,2024109.08264909
256,510764.1966798692
271,0.0
889,6113938.094077138
2,4, 1, 4, 0,21, 0.00,60.00,Thursday
17,5161379.268688999
29,87299.80415468643
108,1178333.499178719
145,227594.73367683232
160,0.0
175,169117.68023001997
190,0.0
205,251927.7695844031
220,0.0
241,2144951.415941573
256,541257.5815562792
271,0.0
889,6640208.945071896
2,4, 1, 4, 0,22, 0.00,60.00,Thursday
17,4451812.169698282
29,65866.14221702153
108,889031.5687130868
145,236348.3772797876
160,0.0
175,120798.34302144323
190,0.0
205,246567.6042740967
220,0.0
241,2084530.2492953318
256,526010.8891180742
271,0.0
889,6854229.636064052
2,4, 1, 4, 0,23, 0.00,60.00,Thursday
17,5086908.942443302
29,56931.15998532923
108,768431.1964658087
145,192580.15926501208
160,0.0
175,77310.93953372377
190,0.0
205,235847.27365348399
220,0.0
241,1782424.4160641244
256,449777.426927049
271,0.0
889,7520675.887186656
2,4, 1, 4, 0,24, 0.00,60.00,Thursday
17,2699107.3291583147
29,26450.161482620908
108,357012.38548524
145,105043.723235461
160,0.0
175,53151.2709294349
190,0.0
205,219766.7777225645
220,0.0
241,1510529.1661560375
256,381167.31095512627
271,0.0
889,6807074.456805193
2,5, 1, 5, 0, 1, 0.00,60.00,Friday
17,2337830.809022111
29,13133.634023603743
108,177271.88606911564
145,43768.218014775535
160,0.0
175,33823.53604600406
190,0.0
205,214406.6124122581
220,0.0
241,1208423.3329248299
256,304933.84876410107
271,0.0
889,8503770.347676199
2,5, 1, 5, 0, 2, 0.00,60.00,Friday
17,1918545.7803309
29,7880.180414162213
108,106363.13164146894
145,26260.930808865287
160,0.0
175,33823.53604600406
190,0.0
205,209046.44710195173
220,0.0
241,1117791.5829554678
256,282063.8101067935
271,0.0
889,7100014.80969253
2,5, 1, 5, 0, 3, 0.00,60.00,Friday
17,1847625.48909025
29,5253.453609441477
108,70908.75442764597
145,17507.28720591018
160,0.0
175,19327.734883430905
190,0.0
205,203686.28179164505
220,0.0
241,1117791.5829554678
256,282063.8101067935
271,0.0
889,6878089.652353717
2,5, 1, 5, 0, 4, 0.00,60.00,Friday
17,1980658.6010189825
29,5253.453609441477
108,70908.75442764597
145,8753.643602955108
160,0.0
175,19327.734883430905
190,0.0
205,198326.11648133864
220,0.0
241,1087580.999632347
256,274440.4638876909
271,0.0
889,7139433.9822881999
2,5, 1, 5, 0, 5, 0.00,60.00,Friday
17,1890392.5109367152
29,5840.658207808643
108,78834.5780400541
145,17507.28720591018
160,0.0
175,33823.53604600406
190,0.0
205,192965.95117103228
220,0.0
241,996949.2496629846
256,251570.42523038339
271,0.0
889,6973282.567327025