Program Version,EnergyPlus, Version 9.2.0-921312fa1d, YMD=2019.11.06 07:58
1,5,Environment Title[],Latitude[deg],Longitude[deg],Time Zone[],Elevation[m]
2,8,Day of Simulation[],Month[],Day of Month[],DST Indicator[1=yes 0=no],Hour[],StartMinute[],EndMinute[],DayType
3,5,Cumulative Day of Simulation[],Month[],Day of Month[],DST Indicator[1=yes 0=no],DayType  ! When Daily Report Variables Requested
4,2,Cumulative Days of Simulation[],Month[]  ! When Monthly Report Variables Requested
5,1,Cumulative Days of Simulation[] ! When Run Period Report Variables Requested
6,1,Calendar Year of Simulation[] ! When Annual Report Variables Requested
276,9,EMS,central ac supply fan cool disaggregate [J] !Monthly [Value,Min,Day,Hour,Minute,Max,Day,Hour,Minute]
277,11,EMS,central ac supply fan cool disaggregate [J] !RunPeriod [Value,Min,Month,Day,Hour,Minute,Max,Month,Day,Hour,Minute]
278,11,EMS,furnace supply fan heat disaggregate [J] !RunPeriod [Value,Min,Month,Day,Hour,Minute,Max,Month,Day,Hour,Minute]
279,9,EMS,furnace supply fan heat disaggregate [J] !Monthly [Value,Min,Day,Hour,Minute,Max,Day,Hour,Minute]
280,11,EMS,water heater EC adjustment [J] !RunPeriod [Value,Min,Month,Day,Hour,Minute,Max,Month,Day,Hour,Minute]
281,1,LIVING,Zone Mean Air Temperature [C] !Hourly
282,1,UNVENTED ATTIC,Zone Mean Air Temperature [C] !Hourly
283,1,VENTED CRAWLSPACE,Zone Mean Air Temperature [C] !Hourly
585,11,CENTRAL AC CLG COIL,Cooling Coil Electric Energy [J] !RunPeriod [Value,Min,Month,Day,Hour,Minute,Max,Month,Day,Hour,Minute]
611,11,FURNACE HTG COIL,Heating Coil Gas Energy [J] !RunPeriod [Value,Min,Month,Day,Hour,Minute,Max,Month,Day,Hour,Minute]
876,11,WATER USE CONNECTIONS 1,Water Use Connections Plant Hot Water Energy [J] !RunPeriod [Value,Min,Month,Day,Hour,Minute,Max,Month,Day,Hour,Minute]
913,11,WATER HEATER,Water Heater Heat Loss Energy [J] !RunPeriod [Value,Min,Month,Day,Hour,Minute,Max,Month,Day,Hour,Minute]
928,11,WATER HEATER,Water Heater Electric Energy [J] !RunPeriod [Value,Min,Month,Day,Hour,Minute,Max,Month,Day,Hour,Minute]
966,11,WATER HEATER,Water Heater Off Cycle Parasitic Electric Energy [J] !RunPeriod [Value,Min,Month,Day,Hour,Minute,Max,Month,Day,Hour,Minute]
968,11,WATER HEATER,Water Heater On Cycle Parasitic Electric Energy [J] !RunPeriod [Value,Min,Month,Day,Hour,Minute,Max,Month,Day,Hour,Minute]
1131,11,CENTRAL AC CLG COIL,Cooling Coil Crankcase Heater Electric Energy [J] !RunPeriod [Value,Min,Month,Day,Hour,Minute,Max,Month,Day,Hour,Minute]
End of Data Dictionary
1,RUN PERIOD 1,  39.83,-104.65,  -7.00,1650.00
2,1, 1, 1, 0, 1, 0.00,60.00,Monday
281,20.000000000000115
282,-7.560371243005893
283,10.841628086974337
2,1, 1, 1, 0, 2, 0.00,60.00,Monday
281,20.00000000000019
282,-10.272168956634511
283,9.80644405965258
2,1, 1, 1, 0, 3, 0.00,60.00,Monday
281,20.000000000000225
282,-12.420490656394364
283,9.11928970477764
2,1, 1, 1, 0, 4, 0.00,60.00,Monday
281,20.000000000000026
282,-13.95364977627198
283,8.52319142035302
2,1, 1, 1, 0, 5, 0.00,60.00,Monday
281,20.0
282,-14.959629723189327
283,8.105256502647816
2,1, 1, 1, 0, 6, 0.00,60.00,Monday
281,20.00000000000014
282,-15.425331470785587
283,7.896408700249438
2,1, 1, 1, 0, 7, 0.00,60.00,Monday
281,20.000000000000008
282,-15.477420097899847
283,7.6982238869501169
2,1, 1, 1, 0, 8, 0.00,60.00,Monday
281,19.99999999999985
282,-14.69876783983908
283,7.66957509955831
2,1, 1, 1, 0, 9, 0.00,60.00,Monday
281,19.999999999999998
282,-12.527412002009229
283,7.740253044023251
2,1, 1, 1, 0,10, 0.00,60.00,Monday
281,20.000000000000097
282,-8.140492589376045
283,8.3230472300537
2,1, 1, 1, 0,11, 0.00,60.00,Monday
281,20.00000000000008
282,-1.8383029784978676
283,9.05844284860647
2,1, 1, 1, 0,12, 0.00,60.00,Monday
281,20.000000000000058
282,3.593808567133359
283,9.495149398476741
2,1, 1, 1, 0,13, 0.00,60.00,Monday
281,19.999999999999984
282,6.790004162263181
283,9.911879890175382
2,1, 1, 1, 0,14, 0.00,60.00,Monday
281,20.000000000000069
282,8.249272706129276
283,9.849528549767867
2,1, 1, 1, 0,15, 0.00,60.00,Monday
281,20.000000000000005
282,8.796341413311634
283,9.992612804079134
2,1, 1, 1, 0,16, 0.00,60.00,Monday
281,20.000000000000044
282,8.140094296720982
283,9.703438185495625
2,1, 1, 1, 0,17, 0.00,60.00,Monday
281,20.0
282,6.025709820209006
283,9.082109483046067
2,1, 1, 1, 0,18, 0.00,60.00,Monday
281,20.0
282,3.5291476124090277
283,8.583038121807862
2,1, 1, 1, 0,19, 0.00,60.00,Monday
281,20.00000000000015
282,0.927569256415127
283,7.842375753418674
2,1, 1, 1, 0,20, 0.00,60.00,Monday
281,19.999999999999976
282,-1.1887200684790334
283,7.431987561769244
2,1, 1, 1, 0,21, 0.00,60.00,Monday
281,19.999999999999966
282,-3.0257159403701987
283,7.0666862831514039
2,1, 1, 1, 0,22, 0.00,60.00,Monday
281,20.000000000000044
282,-4.5118428492727
283,6.780406716114226
2,1, 1, 1, 0,23, 0.00,60.00,Monday
281,20.000000000000126
282,-5.508803211861042
283,6.510970391778754
2,1, 1, 1, 0,24, 0.00,60.00,Monday
281,20.000000000000136
282,-5.816166220516421
283,6.443771551861791
2,2, 1, 2, 0, 1, 0.00,60.00,Tuesday
281,20.00000000000004
282,-5.7954462393211749
283,6.238567219576469
2,2, 1, 2, 0, 2, 0.00,60.00,Tuesday
281,20.000000000000143
282,-5.924033222658617
283,5.93671817375525
2,2, 1, 2, 0, 3, 0.00,60.00,Tuesday
281,19.999999999999966
282,-6.0771235580308
283,5.836178496981792
2,2, 1, 2, 0, 4, 0.00,60.00,Tuesday
281,20.00000000000002
282,-6.4111983954555689
283,5.38023145482488
2,2, 1, 2, 0, 5, 0.00,60.00,Tuesday
281,20.000000000000285
282,-6.849301806306556
283,5.3400038483715879
2,2, 1, 2, 0, 6, 0.00,60.00,Tuesday
281,20.000000000000165
282,-7.269383834045961
283,5.118287827701241
2,2, 1, 2, 0, 7, 0.00,60.00,Tuesday
281,20.000000000000143
282,-7.4198355601336118
283,5.229604763882236
2,2, 1, 2, 0, 8, 0.00,60.00,Tuesday
281,20.00000000000013
282,-7.188810002852271
283,5.427825690601048
2,2, 1, 2, 0, 9, 0.00,60.00,Tuesday
281,20.00000000000006
282,-5.916524778633116
283,5.631317407369172
2,2, 1, 2, 0,10, 0.00,60.00,Tuesday
281,19.999999999999944
282,-2.7105462479406414
283,6.452684394792031
2,2, 1, 2, 0,11, 0.00,60.00,Tuesday
281,20.000000000000037
282,2.7055848406283227
283,7.442188297734108
2,2, 1, 2, 0,12, 0.00,60.00,Tuesday
281,19.99999999999997
282,8.049306165666627
283,8.484322645260951
2,2, 1, 2, 0,13, 0.00,60.00,Tuesday
281,20.000000000000005
282,11.63553407725208
283,9.086147615799219
2,2, 1, 2, 0,14, 0.00,60.00,Tuesday
281,20.00000000000002
282,13.802215473598962
283,9.340750937624183
2,2, 1, 2, 0,15, 0.00,60.00,Tuesday
281,20.0
282,15.118961411113398
283,9.734304055713317
2,2, 1, 2, 0,16, 0.00,60.00,Tuesday
281,20.00000000000001
282,14.73430264050415
283,9.347884319499603
2,2, 1, 2, 0,17, 0.00,60.00,Tuesday
281,20.00000000000006
282,12.486675292630375
283,9.119922210526254
2,2, 1, 2, 0,18, 0.00,60.00,Tuesday
281,20.000000000000058
282,9.837745959972354
283,8.708289415014436
2,2, 1, 2, 0,19, 0.00,60.00,Tuesday
281,20.000000000000094
282,7.085593548608003
283,7.789904203364963
2,2, 1, 2, 0,20, 0.00,60.00,Tuesday
281,19.99999999999993
282,4.669301715923801
283,7.426939151672691
2,2, 1, 2, 0,21, 0.00,60.00,Tuesday
281,19.999999999999994
282,2.561375546460442
283,6.936708484637884
2,2, 1, 2, 0,22, 0.00,60.00,Tuesday
281,20.0
282,0.8035627901326281
283,6.824472505714485
2,2, 1, 2, 0,23, 0.00,60.00,Tuesday
281,20.000000000000026
282,-0.7752030239073672
283,6.960301065995055
2,2, 1, 2, 0,24, 0.00,60.00,Tuesday
281,20.000000000000097
282,-1.740963654883495
283,6.738623253948724
2,3, 1, 3, 0, 1, 0.00,60.00,Wednesday
281,20.000000000000065
282,-2.1803547779999659
283,6.489083782170131
2,3, 1, 3, 0, 2, 0.00,60.00,Wednesday
281,20.000000000000104
282,-2.34525511990122
283,6.349379987452204
2,3, 1, 3, 0, 3, 0.00,60.00,Wednesday
281,19.999999999999994
282,-2.478101520957984
283,6.126129541305733
2,3, 1, 3, 0, 4, 0.00,60.00,Wednesday
281,20.000000000000115
282,-2.700629394760448
283,5.873099852260396
2,3, 1, 3, 0, 5, 0.00,60.00,Wednesday
281,20.000000000000126
282,-2.9109024217078236
283,5.720429686899296
2,3, 1, 3, 0, 6, 0.00,60.00,Wednesday
281,20.000000000000104
282,-2.887364789776364
283,5.698437514378496
2,3, 1, 3, 0, 7, 0.00,60.00,Wednesday
281,19.999999999999987
282,-2.7469293135546559
283,5.599079991243987
2,3, 1, 3, 0, 8, 0.00,60.00,Wednesday
281,20.0
282,-2.458566918142628
283,5.600977459756824
2,3, 1, 3, 0, 9, 0.00,60.00,Wednesday
281,19.999999999999976
282,-1.1804376828032999
283,6.296410691507245
2,3, 1, 3, 0,10, 0.00,60.00,Wednesday
281,20.000000000000065
282,1.3295886552734607
283,6.960947929927596
2,3, 1, 3, 0,11, 0.00,60.00,Wednesday
281,20.000000000000008
282,5.571615812861234
283,7.389041400752192
2,3, 1, 3, 0,12, 0.00,60.00,Wednesday
281,20.000000000000026
282,9.227690776033088
283,7.790242740301027
2,3, 1, 3, 0,13, 0.00,60.00,Wednesday
281,20.000000000000015
282,11.045541313543822
283,7.774135493582682
2,3, 1, 3, 0,14, 0.00,60.00,Wednesday
281,19.999999999999998
282,11.417354978354349
283,7.687239974972781
2,3, 1, 3, 0,15, 0.00,60.00,Wednesday
281,19.999999999999994
282,10.74287294341673
283,7.266182960995244
2,3, 1, 3, 0,16, 0.00,60.00,Wednesday
281,19.999999999999959
282,8.609230433874706
283,6.665645916227868
2,3, 1, 3, 0,17, 0.00,60.00,Wednesday
281,20.000000000000005
282,5.77185572423446
283,5.962176104960382
2,3, 1, 3, 0,18, 0.00,60.00,Wednesday
281,20.000000000000047
282,2.6468389405342
283,5.220644308608767
2,3, 1, 3, 0,19, 0.00,60.00,Wednesday
281,19.999999999999984
282,0.01489348660075862
283,5.020662350926937
2,3, 1, 3, 0,20, 0.00,60.00,Wednesday
281,20.000000000000126
282,-2.229245157038851
283,4.518865691390932
2,3, 1, 3, 0,21, 0.00,60.00,Wednesday
281,19.99999999999994
282,-4.272324396810583
283,3.9842748591855714
2,3, 1, 3, 0,22, 0.00,60.00,Wednesday
281,19.999999999999888
282,-6.034377883932911
283,3.5193516087863268
2,3, 1, 3, 0,23, 0.00,60.00,Wednesday
281,20.000000000000136
282,-7.616146132186313
283,2.9726971828724135
2,3, 1, 3, 0,24, 0.00,60.00,Wednesday
281,19.99999999999984
282,-8.90266208532221
283,2.517510861459365
2,4, 1, 4, 0, 1, 0.00,60.00,Thursday
281,20.00000000000013
282,-10.09331180355499
283,2.0458936583772324
2,4, 1, 4, 0, 2, 0.00,60.00,Thursday
281,20.000000000000186
282,-11.444524798425859
283,1.2972542256237816
2,4, 1, 4, 0, 3, 0.00,60.00,Thursday
281,20.000000000000108
282,-12.747342441493594
283,0.9499650718921145
2,4, 1, 4, 0, 4, 0.00,60.00,Thursday
281,20.00000000000016
282,-13.689479989323085
283,0.8807473473280333
2,4, 1, 4, 0, 5, 0.00,60.00,Thursday
281,20.000000000000193
282,-14.403609525998475
283,0.7052354868285078
2,4, 1, 4, 0, 6, 0.00,60.00,Thursday
281,19.99999999999997
282,-14.982096494645728
283,0.6356316187826668
2,4, 1, 4, 0, 7, 0.00,60.00,Thursday
281,19.999999999999955
282,-15.64008413125413
283,0.7090838820180569
2,4, 1, 4, 0, 8, 0.00,60.00,Thursday
281,20.00000000000007
282,-15.650438886892465
283,1.0799764744743368
2,4, 1, 4, 0, 9, 0.00,60.00,Thursday
281,20.000000000000154
282,-14.22787112431873
283,1.6398180634370292
2,4, 1, 4, 0,10, 0.00,60.00,Thursday
281,19.99999999999998
282,-10.86064936936462
283,2.7020590734647564
2,4, 1, 4, 0,11, 0.00,60.00,Thursday
281,20.000000000000005
282,-6.109835445686442
283,3.72912834702312
2,4, 1, 4, 0,12, 0.00,60.00,Thursday
281,20.000000000000136
282,-1.2322012018968157
283,4.210267199028884
2,4, 1, 4, 0,13, 0.00,60.00,Thursday
281,20.0
282,2.5395592249797018
283,5.372411457182385
2,4, 1, 4, 0,14, 0.00,60.00,Thursday
281,20.00000000000001
282,5.247566509224259
283,6.27724414741816
2,4, 1, 4, 0,15, 0.00,60.00,Thursday
281,19.99999999999999
282,7.2921852868347039
283,7.100889472540699
2,4, 1, 4, 0,16, 0.00,60.00,Thursday
281,20.000000000000069
282,8.313809578023325
283,7.225124362287351
2,4, 1, 4, 0,17, 0.00,60.00,Thursday
281,19.999999999999987
282,7.982276825805642
283,6.8007006587678779
2,4, 1, 4, 0,18, 0.00,60.00,Thursday
281,20.000000000000044
282,6.960223724322994
283,6.712829867539115
2,4, 1, 4, 0,19, 0.00,60.00,Thursday
281,20.000000000000033
282,5.9473532989018109
283,6.5159518714075139
2,4, 1, 4, 0,20, 0.00,60.00,Thursday
281,20.000000000000097
282,5.242401444957165
283,6.79358852594761
2,4, 1, 4, 0,21, 0.00,60.00,Thursday
281,19.999999999999987
282,4.769350567076808
283,6.611070123512028
2,4, 1, 4, 0,22, 0.00,60.00,Thursday
281,20.0
282,4.249157893487628
283,6.4812296892349379
2,4, 1, 4, 0,23, 0.00,60.00,Thursday
281,20.000000000000044
282,3.633812752065055
283,6.348416493038851
2,4, 1, 4, 0,24, 0.00,60.00,Thursday
281,20.00000000000013
282,4.028040470851163
283,7.486558544349518
2,5, 1, 5, 0, 1, 0.00,60.00,Friday
281,20.000000000000008
282,4.193978489109883
283,6.638348993563775
2,5, 1, 5, 0, 2, 0.00,60.00,Friday
281,20.000000000000065
282,4.597559269971895
283,7.697274953900337
2,5, 1, 5, 0, 3, 0.00,60.00,Friday
281,20.000000000000065
282,5.573884115441518
283,8.310020849138763
2,5, 1, 5, 0, 4, 0.00,60.00,Friday
281,20.000000000000005
282,6.210392490474039
283,8.061781791710047
2,5, 1, 5, 0, 5, 0.00,60.00,Friday
281,20.000000000000037
282,6.158094684649996
283,8.039144867459447
2,5, 1, 5, 0, 6, 0.00,60.00,Friday
281,19.999999999999937
282,6.031334909519584
283,8.129546047318563
2,5, 1, 5, 0, 7, 0.00,60.00,Friday
281,20.000000000000094
282,5.433052160473242
283,6.794352588287204
2,5, 1, 5, 0, 8, 0.00,60.00,Friday
281,20.000000000000015
282,5.137382465113559
283,7.921549602210145
2,5, 1, 5, 0, 9, 0.00,60.00,Friday
281,20.000000000000033
282,6.37697025009902
283,8.339799203461425
2,5, 1, 5, 0,10, 0.00,60.00,Friday
281,20.341831695640694
282,9.54733722591406
283,9.540536634990561
2,5, 1, 5, 0,11, 0.00,60.00,Friday
281,20.436418587715424
282,13.375668903157678
283,9.871240455378207
2,5, 1, 5, 0,12, 0.00,60.00,Friday
281,21.060117795975697
282,17.134713854965935
283,10.662854542329744
2,5, 1, 5, 0,13, 0.00,60.00,Friday
281,21.45634688691646
282,20.138263267627126
283,11.002680871527823
2,5, 1, 5, 0,14, 0.00,60.00,Friday
281,21.660114291338457
282,21.853712658336364
283,11.060684454437224
2,5, 1, 5, 0,15, 0.00,60.00,Friday
281,21.697312370975646
282,21.6283704376859
283,10.697217494010215
2,5, 1, 5, 0,16, 0.00,60.00,Friday
281,21.66065662106517
282,19.505059558533174
283,10.203190711786837
2,5, 1, 5, 0,17, 0.00,60.00,Friday
281,21.24071439989682
282,16.478160384374836
283,9.299388638476941
2,5, 1, 5, 0,18, 0.00,60.00,Friday
281,20.935567596490878
282,13.221125956021082
283,8.90733178827067
2,5, 1, 5, 0,19, 0.00,60.00,Friday
281,20.708427933113666
282,10.175728048454675
283,8.222369042060724
2,5, 1, 5, 0,20, 0.00,60.00,Friday
281,20.48617614961995
282,7.853219090306501
283,7.833379454298026
2,5, 1, 5, 0,21, 0.00,60.00,Friday
281,20.150661373449599
282,5.929658624985401
283,7.28588898096314
2,5, 1, 5, 0,22, 0.00,60.00,Friday
281,20.001030056089289
282,4.103889353477752
283,6.718441640801207
2,5, 1, 5, 0,23, 0.00,60.00,Friday
281,20.0000156611328
282,2.49575263477549
283,6.601045522658435
2,5, 1, 5, 0,24, 0.00,60.00,Friday
281,20.00000044104756
282,1.32245026488897
283,6.321111923713146
2,6, 1, 6, 0, 1, 0.00,60.00,Saturday
281,20.000000016809964
282,0.6735663488535756
283,6.136152201283679
2,6, 1, 6, 0, 2, 0.00,60.00,Saturday
281,20.000000000721284
282,0.44985865113686798
283,6.188274356286482
2,6, 1, 6, 0, 3, 0.00,60.00,Saturday
281,20.00000000002931
282,0.2588659016827686
283,5.980055066239383
2,6, 1, 6, 0, 4, 0.00,60.00,Saturday
281,20.000000000001298
282,-0.08502209910691089
283,5.729220563037574
2,6, 1, 6, 0, 5, 0.00,60.00,Saturday
281,20.000000000000147
282,-0.8447386100905159
283,5.474890030693605
2,6, 1, 6, 0, 6, 0.00,60.00,Saturday
281,20.000000000000055
282,-1.580902294129002
283,5.440062876766222
2,6, 1, 6, 0, 7, 0.00,60.00,Saturday
281,19.99999999999995
282,-1.9182872639605254
283,5.215960065603553
2,6, 1, 6, 0, 8, 0.00,60.00,Saturday
281,20.000000000000104
282,-1.93297667290234
283,5.093300300716991
2,6, 1, 6, 0, 9, 0.00,60.00,Saturday
281,19.99999999999992
282,-0.9924412234803993
283,5.097721019752996
2,6, 1, 6, 0,10, 0.00,60.00,Saturday
281,19.999999999999998
282,1.1027673641548639
283,5.251646081551622
2,6, 1, 6, 0,11, 0.00,60.00,Saturday
281,20.000000000000044
282,4.72116455077116
283,5.347660406467255
2,6, 1, 6, 0,12, 0.00,60.00,Saturday
281,20.000000000000019
282,8.267266256329883
283,5.680043798796774
2,6, 1, 6, 0,13, 0.00,60.00,Saturday
281,20.000000000000005
282,9.857738928819309
283,5.946499657900262
2,6, 1, 6, 0,14, 0.00,60.00,Saturday
281,20.0
282,10.111964351534415
283,5.963896145592699
2,6, 1, 6, 0,15, 0.00,60.00,Saturday
281,20.1670600024796
282,9.796757679851881
283,6.1580314147272319
2,6, 1, 6, 0,16, 0.00,60.00,Saturday
281,20.161442302520887
282,8.627394838837097
283,5.986866033531345
2,6, 1, 6, 0,17, 0.00,60.00,Saturday
281,20.002009826902634
282,6.677094150326574
283,5.610501143739471
2,6, 1, 6, 0,18, 0.00,60.00,Saturday
281,20.000057139200995
282,4.259062405305119
283,5.217770354752238
2,6, 1, 6, 0,19, 0.00,60.00,Saturday
281,20.000002352032337
282,1.8345851472018345
283,4.72661095214198
2,6, 1, 6, 0,20, 0.00,60.00,Saturday
281,20.000000121100137
282,-0.0820596953908781
283,4.32710686679118
2,6, 1, 6, 0,21, 0.00,60.00,Saturday
281,20.00000000615406
282,-1.8705191883141328
283,3.8310734937866499
2,6, 1, 6, 0,22, 0.00,60.00,Saturday
281,20.000000000353013
282,-3.5188335853781478
283,3.299951385853024
2,6, 1, 6, 0,23, 0.00,60.00,Saturday
281,20.000000000020728
282,-4.758673734092567
283,3.0503979621352479
2,6, 1, 6, 0,24, 0.00,60.00,Saturday
281,20.000000000001469
282,-5.7522995798375169
283,2.6353171960861485
2,7, 1, 7, 0, 1, 0.00,60.00,Sunday
281,20.000000000000239
282,-6.560629472298773
283,2.392280472139657
2,7, 1, 7, 0, 2, 0.00,60.00,Sunday
281,20.000000000000158
282,-7.133412311417697
283,2.2860279954955717
2,7, 1, 7, 0, 3, 0.00,60.00,Sunday
281,20.000000000000168
282,-7.815357455775247
283,1.7009374591138045
2,7, 1, 7, 0, 4, 0.00,60.00,Sunday
281,20.000000000000033
282,-8.813921178304714
283,1.1930039267371127
2,7, 1, 7, 0, 5, 0.00,60.00,Sunday
281,20.000000000000008
282,-10.064902948791536
283,0.652668484193279
2,7, 1, 7, 0, 6, 0.00,60.00,Sunday
281,20.000000000000019
282,-10.979831225668548
283,0.5608177755844739
2,7, 1, 7, 0, 7, 0.00,60.00,Sunday
281,19.999999999999987
282,-11.525426032867096
283,0.34521261373326236
2,7, 1, 7, 0, 8, 0.00,60.00,Sunday
281,20.000000000000268
282,-10.545710126004522
283,1.7878446538745697
2,7, 1, 7, 0, 9, 0.00,60.00,Sunday
281,20.00000000000012
282,-8.224285657695594
283,2.4195635623888678
2,7, 1, 7, 0,10, 0.00,60.00,Sunday
281,20.000000000000129
282,-5.676786441737476
283,2.8878354637527585
2,7, 1, 7, 0,11, 0.00,60.00,Sunday
281,20.00000000000005
282,-3.1400744147925758
283,3.444604913415061
2,7, 1, 7, 0,12, 0.00,60.00,Sunday
281,19.999999999999966
282,-0.5688191064854858
283,4.150640334141545
2,7, 1, 7, 0,13, 0.00,60.00,Sunday
281,20.000000000000168
282,1.7416546962988853
283,4.600535276468425
2,7, 1, 7, 0,14, 0.00,60.00,Sunday
281,20.000000000000104
282,3.359649900529036
283,4.703456047614938
2,7, 1, 7, 0,15, 0.00,60.00,Sunday
281,20.000000000000197
282,4.184312131856955
283,4.864559009392498
2,7, 1, 7, 0,16, 0.00,60.00,Sunday
281,20.00000000000011
282,4.330574288621824
283,4.859985317094585
2,7, 1, 7, 0,17, 0.00,60.00,Sunday
281,20.000000000000104
282,4.144568157646905
283,5.06818992668721
2,7, 1, 7, 0,18, 0.00,60.00,Sunday
281,19.99999999999997
282,3.8602092312385989
283,5.3263567396464819
2,7, 1, 7, 0,19, 0.00,60.00,Sunday
281,20.00000000000008
282,3.689660682217066
283,5.268470295783257
2,7, 1, 7, 0,20, 0.00,60.00,Sunday
281,20.000000000000037
282,3.476182888533348
283,5.161043075293543
2,7, 1, 7, 0,21, 0.00,60.00,Sunday
281,20.00000000000019
282,2.9319291540384029
283,4.673584184995897
2,7, 1, 7, 0,22, 0.00,60.00,Sunday
281,20.00000000000004
282,1.7710586234348436
283,4.043613407268961
2,7, 1, 7, 0,23, 0.00,60.00,Sunday
281,19.9999999999999
282,0.6755493181630594
283,4.0523865147812929
2,7, 1, 7, 0,24, 0.00,60.00,Sunday
281,20.00000000000004
282,0.3154968324989596
283,4.333502046272772
2,8, 1, 8, 0, 1, 0.00,60.00,Monday
281,20.00000000000008
282,0.37736106897509699
283,4.33077962388883
2,8, 1, 8, 0, 2, 0.00,60.00,Monday
281,19.999999999999948
282,0.4014930092337836
283,4.183209435362745
2,8, 1, 8, 0, 3, 0.00,60.00,Monday
281,19.999999999999905
282,0.11413286120474105
283,3.8031566352410959
2,8, 1, 8, 0, 4, 0.00,60.00,Monday
281,20.000000000000115
282,-0.3888243123583471
283,3.5035816689595329
2,8, 1, 8, 0, 5, 0.00,60.00,Monday
281,20.000000000000037
282,-1.1059110776171939
283,3.091723530975749
2,8, 1, 8, 0, 6, 0.00,60.00,Monday
281,20.0
282,-1.9824433355743754
283,2.949038452065164
2,8, 1, 8, 0, 7, 0.00,60.00,Monday
281,20.000000000000008
282,-2.9227021970084916
283,2.6217200382771148
2,8, 1, 8, 0, 8, 0.00,60.00,Monday
281,20.000000000000005
282,-3.437848456352668
283,2.7907935508430059
2,8, 1, 8, 0, 9, 0.00,60.00,Monday
281,19.999999999999934
282,-1.9010763922990204
283,3.804104611107328
2,8, 1, 8, 0,10, 0.00,60.00,Monday
281,20.000000000000076
282,1.4487253361443267
283,4.796682429869105
2,8, 1, 8, 0,11, 0.00,60.00,Monday
281,20.00000000000001
282,5.36293561889619
283,5.75330730925
2,8, 1, 8, 0,12, 0.00,60.00,Monday
281,20.000000000000005
282,9.004721824178225
283,6.431740868934501
2,8, 1, 8, 0,13, 0.00,60.00,Monday
281,20.306016057427095
282,12.282315849097357
283,7.433075276803638
2,8, 1, 8, 0,14, 0.00,60.00,Monday
281,20.662769384720727
282,14.935716918453795
283,7.904189443750276
2,8, 1, 8, 0,15, 0.00,60.00,Monday
281,20.917697291261868
282,15.973827845494114
283,7.758016916136275
2,8, 1, 8, 0,16, 0.00,60.00,Monday
281,21.1003356087032
282,15.334371673917066
283,7.690965621642273
2,8, 1, 8, 0,17, 0.00,60.00,Monday
281,20.629412611398167
282,13.217250303873357
283,7.0140280570154209
2,8, 1, 8, 0,18, 0.00,60.00,Monday
281,20.002425506716539
282,9.982562107494522
283,5.734650171239511
2,8, 1, 8, 0,19, 0.00,60.00,Monday
281,20.000041363110367
282,6.801066071168394
283,5.222541361308902
2,8, 1, 8, 0,20, 0.00,60.00,Monday
281,20.000001050902389
282,4.281633276603206
283,4.773335402713591
2,8, 1, 8, 0,21, 0.00,60.00,Monday
281,20.00000003278048
282,2.4335262516980644
283,4.646323545441936
2,8, 1, 8, 0,22, 0.00,60.00,Monday
281,20.000000001459957
282,1.0651295610108445
283,4.252066640085488
2,8, 1, 8, 0,23, 0.00,60.00,Monday
281,20.000000000063645
282,-0.006440969709455937
283,4.175872808158985
2,8, 1, 8, 0,24, 0.00,60.00,Monday
281,20.000000000002946
282,-0.8652981272440077
283,3.8315533966267689
2,9, 1, 9, 0, 1, 0.00,60.00,Tuesday
281,20.00000000000026
282,-1.7322017330581803
283,3.5584355796652389
2,9, 1, 9, 0, 2, 0.00,60.00,Tuesday
281,20.000000000000015
282,-2.4877321759395825
283,3.392846040663745
2,9, 1, 9, 0, 3, 0.00,60.00,Tuesday
281,19.999999999999909
282,-3.0499493130361698
283,3.2375412317874767
2,9, 1, 9, 0, 4, 0.00,60.00,Tuesday
281,20.000000000000097
282,-3.4697747805749645
283,3.093766493493731
2,9, 1, 9, 0, 5, 0.00,60.00,Tuesday
281,19.999999999999785
282,-3.943913421133874
283,2.8541448559713107
2,9, 1, 9, 0, 6, 0.00,60.00,Tuesday
281,19.999999999999998
282,-4.309579692613549
283,2.822893033725802
2,9, 1, 9, 0, 7, 0.00,60.00,Tuesday
281,20.000000000000058
282,-5.32297469153683
283,2.4167624391578168
2,9, 1, 9, 0, 8, 0.00,60.00,Tuesday
281,20.000000000000058
282,-5.540279752126231
283,2.9855802864736815
2,9, 1, 9, 0, 9, 0.00,60.00,Tuesday
281,20.00000000000007
282,-3.6582993916395907
283,3.5024164481346529
2,9, 1, 9, 0,10, 0.00,60.00,Tuesday
281,20.0
282,-0.3401648368082361
283,4.1713774175907869
2,9, 1, 9, 0,11, 0.00,60.00,Tuesday
281,20.000000000000033
282,3.5073803349988728
283,4.70241034421802
2,9, 1, 9, 0,12, 0.00,60.00,Tuesday
281,20.000000000000005
282,7.044740740616682
283,4.9018475445516
2,9, 1, 9, 0,13, 0.00,60.00,Tuesday
281,20.0
282,9.355979491711912
283,5.1635675475346549
2,9, 1, 9, 0,14, 0.00,60.00,Tuesday
281,20.058108340747567
282,10.671436797875046
283,5.580692114181312
2,9, 1, 9, 0,15, 0.00,60.00,Tuesday
281,20.337676840556968
282,11.275282347881998
283,6.031701463549953
2,9, 1, 9, 0,16, 0.00,60.00,Tuesday
281,20.41070564570185
282,10.74297684560799
283,6.060406690719044
2,9, 1, 9, 0,17, 0.00,60.00,Tuesday
281,20.000525881670855
282,9.223393277553079
283,5.685815766715121
2,9, 1, 9, 0,18, 0.00,60.00,Tuesday
281,20.000010355375545
282,6.833594898378916
283,5.035170251351587
2,9, 1, 9, 0,19, 0.00,60.00,Tuesday
281,20.000000280340939
282,4.435132640748143
283,4.675215516809792
2,9, 1, 9, 0,20, 0.00,60.00,Tuesday
281,20.00000000949669
282,2.740427495269862
283,4.649446716953914
2,9, 1, 9, 0,21, 0.00,60.00,Tuesday
281,20.000000000408268
282,1.303250045471274
283,4.041849185716699
2,9, 1, 9, 0,22, 0.00,60.00,Tuesday
281,20.00000000001736
282,0.06355542845549416
283,3.890290794236297
2,9, 1, 9, 0,23, 0.00,60.00,Tuesday
281,20.000000000000857
282,-1.0180643399549434
283,3.5575699880947395
2,9, 1, 9, 0,24, 0.00,60.00,Tuesday
281,20.000000000000044
282,-2.131640617113223
283,3.085728632608016
2,10, 1,10, 0, 1, 0.00,60.00,Wednesday
281,20.00000000000005
282,-3.108702955974498
283,2.8964628499637157
2,10, 1,10, 0, 2, 0.00,60.00,Wednesday
281,20.000000000000129
282,-3.9380240451535997
283,2.6175944387828919
2,10, 1,10, 0, 3, 0.00,60.00,Wednesday
281,20.00000000000026
282,-4.674571117231545
283,2.440354111583014
2,10, 1,10, 0, 4, 0.00,60.00,Wednesday
281,20.000000000000285
282,-5.274935350464007
283,2.1750492404545076
2,10, 1,10, 0, 5, 0.00,60.00,Wednesday
281,20.000000000000197
282,-5.794450544529223
283,1.922086040425981
2,10, 1,10, 0, 6, 0.00,60.00,Wednesday
281,20.000000000000154
282,-6.375753558516197
283,1.6552779734353518
2,10, 1,10, 0, 7, 0.00,60.00,Wednesday
281,19.99999999999995
282,-6.804592841378054
283,1.6890613564056987
2,10, 1,10, 0, 8, 0.00,60.00,Wednesday
281,19.999999999999998
282,-6.6016591375830588
283,1.7454512952688659
2,10, 1,10, 0, 9, 0.00,60.00,Wednesday
281,20.000000000000087
282,-4.861125386348141
283,2.41645499997424
2,10, 1,10, 0,10, 0.00,60.00,Wednesday
281,20.000000000000058
282,-1.5424830828579246
283,3.324567185201535
2,10, 1,10, 0,11, 0.00,60.00,Wednesday
281,20.000000000000037
282,2.7007561290010084
283,4.233831244804562
2,10, 1,10, 0,12, 0.00,60.00,Wednesday
281,20.000000000000008
282,7.27038110200279
283,5.21297327860431
2,10, 1,10, 0,13, 0.00,60.00,Wednesday
281,20.209385072485536
282,11.940328414224373
283,6.129727417336914
2,10, 1,10, 0,14, 0.00,60.00,Wednesday
281,20.38795668798655
282,15.187054548279546
283,6.5404165808163718
2,10, 1,10, 0,15, 0.00,60.00,Wednesday
281,20.719704234061856
282,17.002567541165428
283,6.817337547224145
2,10, 1,10, 0,16, 0.00,60.00,Wednesday
281,20.904740030633428
282,16.55707756969565
283,6.950996761957844
2,10, 1,10, 0,17, 0.00,60.00,Wednesday
281,20.47870700123229
282,14.008065793328902
283,6.164404557926777
2,10, 1,10, 0,18, 0.00,60.00,Wednesday
281,20.00318262012625
282,10.424984721948908
283,5.206135034118889
2,10, 1,10, 0,19, 0.00,60.00,Wednesday
281,20.000059921282806
282,6.888659743934486
283,4.5689139101758349
2,10, 1,10, 0,20, 0.00,60.00,Wednesday
281,20.00000147468886
282,3.9652004943280234
283,4.133099801037859
2,10, 1,10, 0,21, 0.00,60.00,Wednesday
281,20.000000047109834
282,1.908392756057015
283,4.120856071665545
2,10, 1,10, 0,22, 0.00,60.00,Wednesday
281,20.000000002273049
282,0.27082387681209488
283,3.5127691897339496
2,10, 1,10, 0,23, 0.00,60.00,Wednesday
281,20.000000000116104
282,-1.2974570479594905
283,3.105946801729408
2,10, 1,10, 0,24, 0.00,60.00,Wednesday
281,20.0000000000065
282,-2.5686964387142305
283,2.8155103387821067
2,11, 1,11, 0, 1, 0.00,60.00,Thursday
281,20.000000000000474
282,-3.6199012660583258
283,2.5009173612908657
2,11, 1,11, 0, 2, 0.00,60.00,Thursday
281,20.000000000000076
282,-4.5568438233868548
283,2.204107171279866
2,11, 1,11, 0, 3, 0.00,60.00,Thursday
281,20.000000000000008
282,-5.4217159276698869
283,2.0125700247173938
2,11, 1,11, 0, 4, 0.00,60.00,Thursday
281,20.000000000000076
282,-5.931257018341472
283,1.9248210867064509
2,11, 1,11, 0, 5, 0.00,60.00,Thursday
281,20.000000000000008
282,-6.058602721165668
283,1.8786845355751095
2,11, 1,11, 0, 6, 0.00,60.00,Thursday
281,20.000000000000076
282,-5.936293978165001
283,1.9612519319906852
2,11, 1,11, 0, 7, 0.00,60.00,Thursday
281,20.000000000000069
282,-5.750857554038001
283,1.8882852171126726
2,11, 1,11, 0, 8, 0.00,60.00,Thursday
281,20.0000000000001
282,-5.353457925275544
283,1.9415153541498738
2,11, 1,11, 0, 9, 0.00,60.00,Thursday
281,19.999999999999898
282,-4.049995388558197
283,2.279663216533482
2,11, 1,11, 0,10, 0.00,60.00,Thursday
281,20.000000000000065
282,-1.2991183448639779
283,3.016576865422315
2,11, 1,11, 0,11, 0.00,60.00,Thursday
281,20.00000000000001
282,3.0735626081520097
283,4.5890999630258799
2,11, 1,11, 0,12, 0.00,60.00,Thursday
281,20.000000000000019
282,8.615904447807273
283,5.630789110947224
2,11, 1,11, 0,13, 0.00,60.00,Thursday
281,20.148550116020834
282,12.691433508797053
283,6.608188487894821
2,11, 1,11, 0,14, 0.00,60.00,Thursday
281,20.45472105891452
282,14.912562669697055
283,7.315800834608725
2,11, 1,11, 0,15, 0.00,60.00,Thursday
281,20.39375336757108
282,15.457728412350486
283,7.773996537045926
2,11, 1,11, 0,16, 0.00,60.00,Thursday
281,20.080172778464755
282,14.537424720728492
283,7.640549376516084
2,11, 1,11, 0,17, 0.00,60.00,Thursday
281,20.000541390441847
282,12.58568392034122
283,7.350182564274898
2,11, 1,11, 0,18, 0.00,60.00,Thursday
281,20.000005782498854
282,10.372129700098162
283,7.174927685377477
2,11, 1,11, 0,19, 0.00,60.00,Thursday
281,20.000000077699423
282,8.69574162128815
283,6.962645215104796
2,11, 1,11, 0,20, 0.00,60.00,Thursday
281,20.000000001776195
282,7.3352925792537209
283,6.454301497294528
2,11, 1,11, 0,21, 0.00,60.00,Thursday
281,20.000000000044616
282,6.112732190648851
283,5.988164709971463
2,11, 1,11, 0,22, 0.00,60.00,Thursday
281,20.00000000000097
282,5.4303580980389019
283,6.353436526991514
2,11, 1,11, 0,23, 0.00,60.00,Thursday
281,20.000000000000097
282,4.959121164753138
283,5.8682946688725929
2,11, 1,11, 0,24, 0.00,60.00,Thursday
281,20.000000000000005
282,4.445271392241101
283,5.566697110275559
2,12, 1,12, 0, 1, 0.00,60.00,Friday
281,20.000000000000076
282,3.8498794201315897