Program Version,EnergyPlus, Version 9.2.0-921312fa1d, YMD=2019.10.24 09:57
1,5,Environment Title[],Latitude[deg],Longitude[deg],Time Zone[],Elevation[m]
2,8,Day of Simulation[],Month[],Day of Month[],DST Indicator[1=yes 0=no],Hour[],StartMinute[],EndMinute[],DayType
3,5,Cumulative Day of Simulation[],Month[],Day of Month[],DST Indicator[1=yes 0=no],DayType  ! When Daily Report Variables Requested
4,2,Cumulative Days of Simulation[],Month[]  ! When Monthly Report Variables Requested
5,1,Cumulative Days of Simulation[] ! When Run Period Report Variables Requested
6,1,Calendar Year of Simulation[] ! When Annual Report Variables Requested
276,9,EMS,central ac supply fan cool disaggregate [J] !Monthly [Value,Min,Day,Hour,Minute,Max,Day,Hour,Minute]
277,11,EMS,central ac supply fan cool disaggregate [J] !RunPeriod [Value,Min,Month,Day,Hour,Minute,Max,Month,Day,Hour,Minute]
278,11,EMS,furnace supply fan heat disaggregate [J] !RunPeriod [Value,Min,Month,Day,Hour,Minute,Max,Month,Day,Hour,Minute]
279,9,EMS,furnace supply fan heat disaggregate [J] !Monthly [Value,Min,Day,Hour,Minute,Max,Day,Hour,Minute]
280,11,EMS,water heater EC adjustment [J] !RunPeriod [Value,Min,Month,Day,Hour,Minute,Max,Month,Day,Hour,Minute]
281,1,LIVING,Zone Mean Air Temperature [C] !Hourly
282,1,UNVENTED ATTIC,Zone Mean Air Temperature [C] !Hourly
283,1,VENTED CRAWLSPACE,Zone Mean Air Temperature [C] !Hourly
585,11,CENTRAL AC CLG COIL,Cooling Coil Electric Energy [J] !RunPeriod [Value,Min,Month,Day,Hour,Minute,Max,Month,Day,Hour,Minute]
611,11,FURNACE HTG COIL,Heating Coil Gas Energy [J] !RunPeriod [Value,Min,Month,Day,Hour,Minute,Max,Month,Day,Hour,Minute]
876,11,WATER USE CONNECTIONS 1,Water Use Connections Plant Hot Water Energy [J] !RunPeriod [Value,Min,Month,Day,Hour,Minute,Max,Month,Day,Hour,Minute]
913,11,WATER HEATER,Water Heater Heat Loss Energy [J] !RunPeriod [Value,Min,Month,Day,Hour,Minute,Max,Month,Day,Hour,Minute]
928,11,WATER HEATER,Water Heater Electric Energy [J] !RunPeriod [Value,Min,Month,Day,Hour,Minute,Max,Month,Day,Hour,Minute]
966,11,WATER HEATER,Water Heater Off Cycle Parasitic Electric Energy [J] !RunPeriod [Value,Min,Month,Day,Hour,Minute,Max,Month,Day,Hour,Minute]
968,11,WATER HEATER,Water Heater On Cycle Parasitic Electric Energy [J] !RunPeriod [Value,Min,Month,Day,Hour,Minute,Max,Month,Day,Hour,Minute]
1131,11,CENTRAL AC CLG COIL,Cooling Coil Crankcase Heater Electric Energy [J] !RunPeriod [Value,Min,Month,Day,Hour,Minute,Max,Month,Day,Hour,Minute]
End of Data Dictionary
1,RUN PERIOD 1,  39.83,-104.65,  -7.00,1650.00
2,1, 1, 1, 0, 1, 0.00,60.00,Monday
281,20.00000000000017
282,-7.559240369238491
283,10.825870501897647
2,1, 1, 1, 0, 2, 0.00,60.00,Monday
281,20.000000000000015
282,-10.270905151467617
283,9.882670874628476
2,1, 1, 1, 0, 3, 0.00,60.00,Monday
281,20.00000000000017
282,-12.419165048289602
283,9.278849635730696
2,1, 1, 1, 0, 4, 0.00,60.00,Monday
281,20.000000000000069
282,-13.952291174022518
283,8.73648179545422
2,1, 1, 1, 0, 5, 0.00,60.00,Monday
281,20.000000000000168
282,-14.958247596118998
283,8.352475886880813
2,1, 1, 1, 0, 6, 0.00,60.00,Monday
281,20.000000000000179
282,-15.423939345166622
283,8.163585208215647
2,1, 1, 1, 0, 7, 0.00,60.00,Monday
281,20.00000000000018
282,-15.476030556278069
283,7.9722099156065939
2,1, 1, 1, 0, 8, 0.00,60.00,Monday
281,20.000000000000165
282,-14.697414531088255
283,7.933380020180062
2,1, 1, 1, 0, 9, 0.00,60.00,Monday
281,20.000000000000026
282,-12.526117811377649
283,7.942598708227783
2,1, 1, 1, 0,10, 0.00,60.00,Monday
281,20.000000000000005
282,-8.139753299357427
283,8.350499472313837
2,1, 1, 1, 0,11, 0.00,60.00,Monday
281,20.00000000000004
282,-1.8386469227035008
283,8.907485577781318
2,1, 1, 1, 0,12, 0.00,60.00,Monday
281,20.000000000000026
282,3.5936530655987406
283,9.228097218878008
2,1, 1, 1, 0,13, 0.00,60.00,Monday
281,20.000000000000008
282,6.791113019596966
283,9.602103568763506
2,1, 1, 1, 0,14, 0.00,60.00,Monday
281,19.99999999999997
282,8.25023958236116
283,9.545132702325328
2,1, 1, 1, 0,15, 0.00,60.00,Monday
281,19.999999999999987
282,8.797162157416026
283,9.707906693254733
2,1, 1, 1, 0,16, 0.00,60.00,Monday
281,20.000000000000033
282,8.14078799387383
283,9.466281976262695
2,1, 1, 1, 0,17, 0.00,60.00,Monday
281,20.000000000000076
282,6.026852609420059
283,8.922916589020432
2,1, 1, 1, 0,18, 0.00,60.00,Monday
281,20.000000000000005
282,3.5304259260540489
283,8.511891856153789
2,1, 1, 1, 0,19, 0.00,60.00,Monday
281,20.0
282,0.928648448408494
283,7.849227507871834
2,1, 1, 1, 0,20, 0.00,60.00,Monday
281,19.999999999999976
282,-1.1876555301199666
283,7.497873148570396
2,1, 1, 1, 0,21, 0.00,60.00,Monday
281,19.999999999999998
282,-3.0246388456057029
283,7.174588798696933
2,1, 1, 1, 0,22, 0.00,60.00,Monday
281,20.00000000000003
282,-4.5107434331108779
283,6.9219326230337609
2,1, 1, 1, 0,23, 0.00,60.00,Monday
281,20.000000000000079
282,-5.507690614309561
283,6.682710868723878
2,1, 1, 1, 0,24, 0.00,60.00,Monday
281,20.0
282,-5.815065678205616
283,6.643477583741707
2,2, 1, 2, 0, 1, 0.00,60.00,Tuesday
281,19.999999999999998
282,-5.794366506385684
283,6.453080831055524
2,2, 1, 2, 0, 2, 0.00,60.00,Tuesday
281,19.999999999999856
282,-5.922965929864989
283,6.157720339475973
2,2, 1, 2, 0, 3, 0.00,60.00,Tuesday
281,20.000000000000015
282,-6.076058463731949
283,6.058968299513285
2,2, 1, 2, 0, 4, 0.00,60.00,Tuesday
281,19.99999999999986
282,-6.410137919922276
283,5.607899532869213
2,2, 1, 2, 0, 5, 0.00,60.00,Tuesday
281,20.000000000000129
282,-6.8482342245051319
283,5.561532305991917
2,2, 1, 2, 0, 6, 0.00,60.00,Tuesday
281,20.000000000000026
282,-7.268307741961009
283,5.332801362584838
2,2, 1, 2, 0, 7, 0.00,60.00,Tuesday
281,20.000000000000087
282,-7.418759624124728
283,5.431272723006499
2,2, 1, 2, 0, 8, 0.00,60.00,Tuesday
281,20.000000000000143
282,-7.187738460092633
283,5.586310189297074
2,2, 1, 2, 0, 9, 0.00,60.00,Tuesday
281,19.99999999999986
282,-5.91545451166653
283,5.706793497755848
2,2, 1, 2, 0,10, 0.00,60.00,Tuesday
281,20.000000000000076
282,-2.70967474086545
283,6.3541256372422769
2,2, 1, 2, 0,11, 0.00,60.00,Tuesday
281,19.999999999999984
282,2.706137490040366
283,7.122894107380198
2,2, 1, 2, 0,12, 0.00,60.00,Tuesday
281,20.000000000000033
282,8.050027499666906
283,8.00941189803376
2,2, 1, 2, 0,13, 0.00,60.00,Tuesday
281,20.000000000000019
282,11.636318390969056
283,8.497214611157255
2,2, 1, 2, 0,14, 0.00,60.00,Tuesday
281,20.0
282,13.802998914059958
283,8.803223089148484
2,2, 1, 2, 0,15, 0.00,60.00,Tuesday
281,19.999999999999994
282,15.119718536528455
283,9.222037192616256
2,2, 1, 2, 0,16, 0.00,60.00,Tuesday
281,20.00000000000001
282,14.734983724336816
283,8.949200830012894
2,2, 1, 2, 0,17, 0.00,60.00,Tuesday
281,20.000000000000033
282,12.487283145967912
283,8.826990578202733
2,2, 1, 2, 0,18, 0.00,60.00,Tuesday
281,20.000000000000005
282,9.83859648992607
283,8.53009890048287
2,2, 1, 2, 0,19, 0.00,60.00,Tuesday
281,20.00000000000005
282,7.086503280384342
283,7.689847372702712
2,2, 1, 2, 0,20, 0.00,60.00,Tuesday
281,19.99999999999999
282,4.670198148833385
283,7.360433656531302
2,2, 1, 2, 0,21, 0.00,60.00,Tuesday
281,19.999999999999969
282,2.5622772532941626
283,6.914859172250497
2,2, 1, 2, 0,22, 0.00,60.00,Tuesday
281,20.000000000000079
282,0.8044889331318911
283,6.8606516991092258
2,2, 1, 2, 0,23, 0.00,60.00,Tuesday
281,20.0
282,-0.7742310164596107
283,7.037220421541839
2,2, 1, 2, 0,24, 0.00,60.00,Tuesday
281,20.000000000000126
282,-1.7399676872664392
283,6.844149011285538
2,3, 1, 3, 0, 1, 0.00,60.00,Wednesday
281,20.00000000000008
282,-2.179366714873462
283,6.618125453219773
2,3, 1, 3, 0, 2, 0.00,60.00,Wednesday
281,19.99999999999991
282,-2.3442892485044894
283,6.501128843465625
2,3, 1, 3, 0, 3, 0.00,60.00,Wednesday
281,20.000000000000119
282,-2.4771578702714738
283,6.296292461957218
2,3, 1, 3, 0, 4, 0.00,60.00,Wednesday
281,20.00000000000004
282,-2.699703355392065
283,6.05875086143585
2,3, 1, 3, 0, 5, 0.00,60.00,Wednesday
281,20.00000000000001
282,-2.909991644078989
283,5.918128390164946
2,3, 1, 3, 0, 6, 0.00,60.00,Wednesday
281,20.00000000000012
282,-2.886472851162447
283,5.900275847745952
2,3, 1, 3, 0, 7, 0.00,60.00,Wednesday
281,20.00000000000012
282,-2.746056925056551
283,5.796460733550947
2,3, 1, 3, 0, 8, 0.00,60.00,Wednesday
281,19.99999999999996
282,-2.457711243572197
283,5.782552913781787
2,3, 1, 3, 0, 9, 0.00,60.00,Wednesday
281,20.000000000000087
282,-1.1796290184968053
283,6.399286012737141
2,3, 1, 3, 0,10, 0.00,60.00,Wednesday
281,20.000000000000097
282,1.3303044018046673
283,6.926186150107607
2,3, 1, 3, 0,11, 0.00,60.00,Wednesday
281,19.999999999999955
282,5.571738760417588
283,7.187332779526978
2,3, 1, 3, 0,12, 0.00,60.00,Wednesday
281,20.000000000000015
282,9.228222026422016
283,7.500349530656867
2,3, 1, 3, 0,13, 0.00,60.00,Wednesday
281,20.000000000000008
282,11.046248157673715
283,7.490359895487113
2,3, 1, 3, 0,14, 0.00,60.00,Wednesday
281,20.000000000000015
282,11.417972946274397
283,7.41963703726684
2,3, 1, 3, 0,15, 0.00,60.00,Wednesday
281,20.000000000000015
282,10.743376343063149
283,7.011037151553319
2,3, 1, 3, 0,16, 0.00,60.00,Wednesday
281,20.0
282,8.60950000888102
283,6.507620612582991
2,3, 1, 3, 0,17, 0.00,60.00,Wednesday
281,20.000000000000037
282,5.772377551527147
283,5.941278194450957
2,3, 1, 3, 0,18, 0.00,60.00,Wednesday
281,20.00000000000002
282,2.6475120082998808
283,5.292329690320704
2,3, 1, 3, 0,19, 0.00,60.00,Wednesday
281,20.000000000000047
282,0.015649014164683809
283,5.112832491917587
2,3, 1, 3, 0,20, 0.00,60.00,Wednesday
281,20.000000000000026
282,-2.2283914722551678
283,4.6399283571482619
2,3, 1, 3, 0,21, 0.00,60.00,Wednesday
281,20.0
282,-4.271372123450807
283,4.137236928095872
2,3, 1, 3, 0,22, 0.00,60.00,Wednesday
281,20.000000000000129
282,-6.033349437775802
283,3.7069057013633035
2,3, 1, 3, 0,23, 0.00,60.00,Wednesday
281,19.9999999999999
282,-7.615058189084847
283,3.2037053236056458
2,3, 1, 3, 0,24, 0.00,60.00,Wednesday
281,20.00000000000022
282,-8.901528709081367
283,2.7862489334166704
2,4, 1, 4, 0, 1, 0.00,60.00,Thursday
281,20.000000000000019
282,-10.092123289467184
283,2.342509074052253
2,4, 1, 4, 0, 2, 0.00,60.00,Thursday
281,20.0
282,-11.443268012369624
283,1.6175925814459074
2,4, 1, 4, 0, 3, 0.00,60.00,Thursday
281,20.000000000000186
282,-12.746047334325999
283,1.3020520885009349
2,4, 1, 4, 0, 4, 0.00,60.00,Thursday
281,20.000000000000378
282,-13.68818615393563
283,1.2688879989397804
2,4, 1, 4, 0, 5, 0.00,60.00,Thursday
281,20.000000000000037
282,-14.40231923257566
283,1.1067966268088268
2,4, 1, 4, 0, 6, 0.00,60.00,Thursday
281,20.00000000000004
282,-14.980800636517998
283,1.040382870091018
2,4, 1, 4, 0, 7, 0.00,60.00,Thursday
281,19.999999999999916
282,-15.638763846547363
283,1.1041015615124615
2,4, 1, 4, 0, 8, 0.00,60.00,Thursday
281,20.000000000000179
282,-15.64909729473061
283,1.413429829353368
2,4, 1, 4, 0, 9, 0.00,60.00,Thursday
281,20.0000000000002
282,-14.22651305044073
283,1.884363717139611
2,4, 1, 4, 0,10, 0.00,60.00,Thursday
281,20.00000000000001
282,-10.859455006195708
283,2.8230878331581414
2,4, 1, 4, 0,11, 0.00,60.00,Thursday
281,20.00000000000015
282,-6.1089106726632969
283,3.7021769160445956
2,4, 1, 4, 0,12, 0.00,60.00,Thursday
281,20.000000000000005
282,-1.2312093665012252
283,4.070417608881468
2,4, 1, 4, 0,13, 0.00,60.00,Thursday
281,20.000000000000087
282,2.539098334235887
283,5.107566048256811
2,4, 1, 4, 0,14, 0.00,60.00,Thursday
281,20.000000000000005
282,5.247311213007768
283,5.89768663844498
2,4, 1, 4, 0,15, 0.00,60.00,Thursday
281,20.00000000000002
282,7.292504594685577
283,6.54789701064836
2,4, 1, 4, 0,16, 0.00,60.00,Thursday
281,20.00000000000006
282,8.314313064212954
283,6.714016297073372
2,4, 1, 4, 0,17, 0.00,60.00,Thursday
281,19.999999999999998
282,7.982823214521193
283,6.359849837458446
2,4, 1, 4, 0,18, 0.00,60.00,Thursday
281,20.000000000000069
282,6.960741105846759
283,6.404016430223704
2,4, 1, 4, 0,19, 0.00,60.00,Thursday
281,20.000000000000005
282,5.9479896911194
283,6.281560746338643
2,4, 1, 4, 0,20, 0.00,60.00,Thursday
281,20.000000000000008
282,5.243039772956939
283,6.579003442110612
2,4, 1, 4, 0,21, 0.00,60.00,Thursday
281,19.99999999999999
282,4.769942967480695
283,6.4307387701668479
2,4, 1, 4, 0,22, 0.00,60.00,Thursday
281,20.000000000000005
282,4.249733485174673
283,6.335984435826069
2,4, 1, 4, 0,23, 0.00,60.00,Thursday
281,20.00000000000006
282,3.6343864317712768
283,6.234776573612307
2,4, 1, 4, 0,24, 0.00,60.00,Thursday
281,19.999999999999998
282,4.02859171912781
283,7.302512563395733
2,5, 1, 5, 0, 1, 0.00,60.00,Friday
281,20.000000000000033
282,4.194526287784535
283,6.5062140395180239
2,5, 1, 5, 0, 2, 0.00,60.00,Friday
281,19.999999999999976
282,4.598059209396817
283,7.52894970159163
2,5, 1, 5, 0, 3, 0.00,60.00,Friday
281,20.000000000000069
282,5.574369159748691
283,8.068258878169676
2,5, 1, 5, 0, 4, 0.00,60.00,Friday
281,20.00000000000005
282,6.210918852427562
283,7.835885443619483
2,5, 1, 5, 0, 5, 0.00,60.00,Friday
281,20.00000000000002
282,6.158593623482504
283,7.8266091883337209
2,5, 1, 5, 0, 6, 0.00,60.00,Friday
281,20.000000000000044
282,6.031810173823046
283,7.92910252108388
2,5, 1, 5, 0, 7, 0.00,60.00,Friday
281,20.00000000000003
282,5.433510697959867
283,6.627043496124417
2,5, 1, 5, 0, 8, 0.00,60.00,Friday
281,20.000000000000005
282,5.137860081947916
283,7.757194238557903
2,5, 1, 5, 0, 9, 0.00,60.00,Friday
281,20.000000000000026
282,6.377420335356962
283,7.999940847118134
2,5, 1, 5, 0,10, 0.00,60.00,Friday
281,20.353486965836035
282,9.547703130205039
283,9.233509205542266
2,5, 1, 5, 0,11, 0.00,60.00,Friday
281,20.460152432831128
282,13.37611454029911
283,9.391138816962716
2,5, 1, 5, 0,12, 0.00,60.00,Friday
281,21.095004631984496
282,17.135840591190776
283,10.075712492236491
2,5, 1, 5, 0,13, 0.00,60.00,Friday
281,21.499740092932809
282,20.13991363372963
283,10.30858150711534
2,5, 1, 5, 0,14, 0.00,60.00,Friday
281,21.713830383321239
282,21.85499201397854
283,10.300281230157005
2,5, 1, 5, 0,15, 0.00,60.00,Friday
281,21.763763650219607
282,21.629190976084727
283,9.972164286486257
2,5, 1, 5, 0,16, 0.00,60.00,Friday
281,21.722779844854676
282,19.50581016388556
283,9.57210585733196
2,5, 1, 5, 0,17, 0.00,60.00,Friday
281,21.299272128637019
282,16.479124320106153
283,8.924313389364098
2,5, 1, 5, 0,18, 0.00,60.00,Friday
281,20.99085543225973
282,13.222279806880787
283,8.799741375910715
2,5, 1, 5, 0,19, 0.00,60.00,Friday
281,20.76109565016506
282,10.1769888363532
283,8.273757969035735
2,5, 1, 5, 0,20, 0.00,60.00,Friday
281,20.534376414496326
282,7.854678986159795
283,7.95776352657787
2,5, 1, 5, 0,21, 0.00,60.00,Friday
281,20.196697129438517
282,5.931321979238632
283,7.445955939044389
2,5, 1, 5, 0,22, 0.00,60.00,Friday
281,20.001042384315026
282,4.105783522627656
283,6.920141716382236
2,5, 1, 5, 0,23, 0.00,60.00,Friday
281,20.000014625032635
282,2.497882761224889
283,6.8129563161838
2,5, 1, 5, 0,24, 0.00,60.00,Friday
281,20.000000384082666
282,1.3247611640077269
283,6.528831889021873
2,6, 1, 6, 0, 1, 0.00,60.00,Saturday
281,20.000000014034776
282,0.6759891884418652
283,6.3373028158660349
2,6, 1, 6, 0, 2, 0.00,60.00,Saturday
281,20.00000000059968
282,0.45234052543275329
283,6.385385604907486
2,6, 1, 6, 0, 3, 0.00,60.00,Saturday
281,20.000000000024547
282,0.2613788085770243
283,6.177207783462053
2,6, 1, 6, 0, 4, 0.00,60.00,Saturday
281,20.000000000001064
282,-0.08250710931320989
283,5.930917036278135
2,6, 1, 6, 0, 5, 0.00,60.00,Saturday
281,20.000000000000115
282,-0.8422173797670273
283,5.691374890171243
2,6, 1, 6, 0, 6, 0.00,60.00,Saturday
281,20.000000000000033
282,-1.5784069229806366
283,5.6819025020193278
2,6, 1, 6, 0, 7, 0.00,60.00,Saturday
281,20.000000000000104
282,-1.9159074226337672
283,5.466445420704444
2,6, 1, 6, 0, 8, 0.00,60.00,Saturday
281,20.000000000000165
282,-1.930751299500488
283,5.338580829907666
2,6, 1, 6, 0, 9, 0.00,60.00,Saturday
281,19.99999999999995
282,-0.9903825833485562
283,5.248440170027994
2,6, 1, 6, 0,10, 0.00,60.00,Saturday
281,20.0
282,1.1044428547537484
283,5.302233996479697
2,6, 1, 6, 0,11, 0.00,60.00,Saturday
281,20.00000000000004
282,4.722540167924423
283,5.298677775145021
2,6, 1, 6, 0,12, 0.00,60.00,Saturday
281,20.0
282,8.268051846145033
283,5.5195848896243959
2,6, 1, 6, 0,13, 0.00,60.00,Saturday
281,20.0
282,9.858722984805653
283,5.722223863258044
2,6, 1, 6, 0,14, 0.00,60.00,Saturday
281,20.0
282,10.11345241993632
283,5.706172769570512
2,6, 1, 6, 0,15, 0.00,60.00,Saturday
281,20.204117641996409
282,9.797693009785302
283,5.899935341740206
2,6, 1, 6, 0,16, 0.00,60.00,Saturday
281,20.207708140083488
282,8.628569635490458
283,5.781032735442584
2,6, 1, 6, 0,17, 0.00,60.00,Saturday
281,20.002261681503357
282,6.678411730934797
283,5.552659588805519
2,6, 1, 6, 0,18, 0.00,60.00,Saturday
281,20.00006107433995
282,4.260430586220877
283,5.287335936024577
2,6, 1, 6, 0,19, 0.00,60.00,Saturday
281,20.000002422306815
282,1.8360909409247713
283,4.872054470418557
2,6, 1, 6, 0,20, 0.00,60.00,Saturday
281,20.000000123685408
282,-0.08044595420248405
283,4.504926530364869
2,6, 1, 6, 0,21, 0.00,60.00,Saturday
281,20.00000000639528
282,-1.8687850966278204
283,4.014522138225137
2,6, 1, 6, 0,22, 0.00,60.00,Saturday
281,20.00000000036891
282,-3.5169844648746064
283,3.4992858381295286
2,6, 1, 6, 0,23, 0.00,60.00,Saturday
281,20.000000000021755
282,-4.756752516938976
283,3.262761898026924
2,6, 1, 6, 0,24, 0.00,60.00,Saturday
281,20.00000000000153
282,-5.750350784771557
283,2.8646569380497799
2,7, 1, 7, 0, 1, 0.00,60.00,Sunday
281,20.00000000000024
282,-6.558692099096858
283,2.6509875585063966
2,7, 1, 7, 0, 2, 0.00,60.00,Sunday
281,20.000000000000158
282,-7.131503770411156
283,2.5704214857363847
2,7, 1, 7, 0, 3, 0.00,60.00,Sunday
281,20.000000000000097
282,-7.813490375542226
283,2.0005824713306765
2,7, 1, 7, 0, 4, 0.00,60.00,Sunday
281,19.99999999999995
282,-8.812074052943635
283,1.5008597189804925
2,7, 1, 7, 0, 5, 0.00,60.00,Sunday
281,20.00000000000017
282,-10.063031051757847
283,0.970272440530562
2,7, 1, 7, 0, 6, 0.00,60.00,Sunday
281,20.000000000000055
282,-10.9779920457211
283,0.9014056225489039
2,7, 1, 7, 0, 7, 0.00,60.00,Sunday
281,19.99999999999988
282,-11.523669952316009
283,0.6983006453171257
2,7, 1, 7, 0, 8, 0.00,60.00,Sunday
281,19.999999999999994
282,-10.544064455171752
283,2.12298757599799
2,7, 1, 7, 0, 9, 0.00,60.00,Sunday
281,20.000000000000115
282,-8.22263690798408
283,2.6734101792802757
2,7, 1, 7, 0,10, 0.00,60.00,Sunday
281,20.00000000000008
282,-5.675398786415936
283,3.0464408945013736
2,7, 1, 7, 0,11, 0.00,60.00,Sunday
281,20.000000000000119
282,-3.1389075336721516
283,3.5016530766083635
2,7, 1, 7, 0,12, 0.00,60.00,Sunday
281,20.00000000000021
282,-0.5677383425409585
283,4.10232629293613
2,7, 1, 7, 0,13, 0.00,60.00,Sunday
281,20.00000000000002
282,1.7425592253397753
283,4.466232546320174
2,7, 1, 7, 0,14, 0.00,60.00,Sunday
281,20.000000000000005
282,3.3603747660908778
283,4.531428022119085
2,7, 1, 7, 0,15, 0.00,60.00,Sunday
281,20.000000000000097
282,4.184997394251461
283,4.683938995438644
2,7, 1, 7, 0,16, 0.00,60.00,Sunday
281,20.00000000000003
282,4.331316824565859
283,4.699946009751788
2,7, 1, 7, 0,17, 0.00,60.00,Sunday
281,20.000000000000055
282,4.145502324098106
283,4.920996083644908
2,7, 1, 7, 0,18, 0.00,60.00,Sunday
281,20.000000000000097
282,3.861039071117122
283,5.172409087187983
2,7, 1, 7, 0,19, 0.00,60.00,Sunday
281,20.00000000000001
282,3.6903801733129999
283,5.136590940786873
2,7, 1, 7, 0,20, 0.00,60.00,Sunday
281,20.000000000000087
282,3.4768747849782679
283,5.05734753685277
2,7, 1, 7, 0,21, 0.00,60.00,Sunday
281,20.00000000000004
282,2.932601625644068
283,4.616621318046596
2,7, 1, 7, 0,22, 0.00,60.00,Sunday
281,19.9999999999999
282,1.7717351980610412
283,4.025543103515332
2,7, 1, 7, 0,23, 0.00,60.00,Sunday
281,20.000000000000115
282,0.6762272228259865
283,4.061691707323612
2,7, 1, 7, 0,24, 0.00,60.00,Sunday
281,20.000000000000044
282,0.3161564352538454
283,4.350860641464253
2,8, 1, 8, 0, 1, 0.00,60.00,Monday
281,20.000000000000104
282,0.3780034942761881
283,4.348833391806483
2,8, 1, 8, 0, 2, 0.00,60.00,Monday
281,20.000000000000087
282,0.4021247255822603
283,4.207914510962966
2,8, 1, 8, 0, 3, 0.00,60.00,Monday
281,20.00000000000003
282,0.1147638468564853
283,3.8484509055003439
2,8, 1, 8, 0, 4, 0.00,60.00,Monday
281,20.000000000000129
282,-0.38818883789007938
283,3.5706328910989186
2,8, 1, 8, 0, 5, 0.00,60.00,Monday
281,20.0
282,-1.1052716152824174
283,3.1839468254599434
2,8, 1, 8, 0, 6, 0.00,60.00,Monday
281,20.000000000000037
282,-1.9817908335701782
283,3.0631328035613136
2,8, 1, 8, 0, 7, 0.00,60.00,Monday
281,20.00000000000027
282,-2.9220342034195596
283,2.7595147873212539
2,8, 1, 8, 0, 8, 0.00,60.00,Monday
281,20.00000000000013
282,-3.437167084077846
283,2.9162263146374727
2,8, 1, 8, 0, 9, 0.00,60.00,Monday
281,20.000000000000087
282,-1.9004023851340657
283,3.790476603979393
2,8, 1, 8, 0,10, 0.00,60.00,Monday
281,20.000000000000026
282,1.4492670566625006
283,4.564798405324444
2,8, 1, 8, 0,11, 0.00,60.00,Monday
281,20.000000000000005
282,5.3633235378716439
283,5.361149790889522
2,8, 1, 8, 0,12, 0.00,60.00,Monday
281,19.999999999999994
282,9.005202164947704
283,5.979265651837899
2,8, 1, 8, 0,13, 0.00,60.00,Monday
281,20.332171691525394
282,12.282933205482872
283,7.011201697037839
2,8, 1, 8, 0,14, 0.00,60.00,Monday
281,20.706227708821275
282,14.936359714164864
283,7.348011849493411
2,8, 1, 8, 0,15, 0.00,60.00,Monday
281,20.968625674004568
282,15.974468251768842
283,7.075914498751491
2,8, 1, 8, 0,16, 0.00,60.00,Monday
281,21.157645396208893
282,15.334936388426352
283,6.905043699004926
2,8, 1, 8, 0,17, 0.00,60.00,Monday
281,20.688997333163653
282,13.218019437739976
283,6.484303313714398
2,8, 1, 8, 0,18, 0.00,60.00,Monday
281,20.001300965321926
282,9.983534911802013
283,5.4626929361014409
2,8, 1, 8, 0,19, 0.00,60.00,Monday
281,20.000020445035966
282,6.802165041901836
283,5.201035876553332
2,8, 1, 8, 0,20, 0.00,60.00,Monday
281,20.000000485420086
282,4.282911503678261
283,4.854460864060398
2,8, 1, 8, 0,21, 0.00,60.00,Monday
281,20.0000000145968
282,2.4349920653197398
283,4.776160077298105
2,8, 1, 8, 0,22, 0.00,60.00,Monday
281,20.00000000060913
282,1.066774144287256
283,4.418481374778866
2,8, 1, 8, 0,23, 0.00,60.00,Monday
281,20.000000000027606
282,-0.004641633429883286
283,4.337683873654496
2,8, 1, 8, 0,24, 0.00,60.00,Monday
281,20.000000000001248
282,-0.8633956842460266
283,3.998293835304464
2,9, 1, 9, 0, 1, 0.00,60.00,Tuesday
281,19.999999999999998
282,-1.730246883129217
283,3.7438576985899725
2,9, 1, 9, 0, 2, 0.00,60.00,Tuesday
281,19.999999999999998
282,-2.485764173962634
283,3.5967798281557039
2,9, 1, 9, 0, 3, 0.00,60.00,Tuesday
281,19.999999999999998
282,-3.0480076072192574
283,3.4677587222747636
2,9, 1, 9, 0, 4, 0.00,60.00,Tuesday
281,20.00000000000012
282,-3.4678870970192499
283,3.345289926431033
2,9, 1, 9, 0, 5, 0.00,60.00,Tuesday
281,19.999999999999916
282,-3.942084675134792
283,3.115672285762558
2,9, 1, 9, 0, 6, 0.00,60.00,Tuesday
281,20.00000000000013
282,-4.307818086533404
283,3.093689110212926
2,9, 1, 9, 0, 7, 0.00,60.00,Tuesday
281,19.999999999999866
282,-5.321232100612713
283,2.6864412569912736
2,9, 1, 9, 0, 8, 0.00,60.00,Tuesday
281,20.000000000000026
282,-5.53856927293336
283,3.2269090292881059
2,9, 1, 9, 0, 9, 0.00,60.00,Tuesday
281,20.0
282,-3.6566624883711364
283,3.5929382696605507
2,9, 1, 9, 0,10, 0.00,60.00,Tuesday
281,20.00000000000004
282,-0.3389184668579546
283,4.0954459880573579
2,9, 1, 9, 0,11, 0.00,60.00,Tuesday
281,20.000000000000033
282,3.50820887228247
283,4.529036082646995
2,9, 1, 9, 0,12, 0.00,60.00,Tuesday
281,20.000000000000019
282,7.045647258349021
283,4.617842162633502
2,9, 1, 9, 0,13, 0.00,60.00,Tuesday
281,20.000000000000005
282,9.355826514518462
283,4.764234987357821
2,9, 1, 9, 0,14, 0.00,60.00,Tuesday
281,20.0942015642069
282,10.671995750269414
283,5.083438105590811
2,9, 1, 9, 0,15, 0.00,60.00,Tuesday
281,20.385124068692226
282,11.275267350053158
283,5.428430760927799
2,9, 1, 9, 0,16, 0.00,60.00,Tuesday
281,20.461152610245024
282,10.744154423833873
283,5.522952571000941
2,9, 1, 9, 0,17, 0.00,60.00,Tuesday
281,20.014953617409643
282,9.224302976926849
283,5.360020978495771
2,9, 1, 9, 0,18, 0.00,60.00,Tuesday
281,20.000272906528236
282,6.834625042364044
283,4.982048915295791
2,9, 1, 9, 0,19, 0.00,60.00,Tuesday
281,20.0000070411547
282,4.436358874573742
283,4.718035437424217
2,9, 1, 9, 0,20, 0.00,60.00,Tuesday
281,20.00000022262125
282,2.74181231156536
283,4.745950124736217
2,9, 1, 9, 0,21, 0.00,60.00,Tuesday
281,20.000000010006418
282,1.3047805853483959
283,4.197666207323395
2,9, 1, 9, 0,22, 0.00,60.00,Tuesday
281,20.000000000428505
282,0.0652155556302409
283,4.051015241834437
2,9, 1, 9, 0,23, 0.00,60.00,Tuesday
281,20.00000000002032
282,-1.0163124296860867
283,3.7252296831742566
2,9, 1, 9, 0,24, 0.00,60.00,Tuesday
281,20.00000000000135
282,-2.129832700469843
283,3.271427895140322
2,10, 1,10, 0, 1, 0.00,60.00,Wednesday
281,20.000000000000165
282,-3.106876068764293
283,3.1038617410722995
2,10, 1,10, 0, 2, 0.00,60.00,Wednesday
281,20.00000000000016
282,-3.9362121807481889
283,2.848352987455631
2,10, 1,10, 0, 3, 0.00,60.00,Wednesday
281,20.00000000000014
282,-4.6727895061574709
283,2.697727830390393
2,10, 1,10, 0, 4, 0.00,60.00,Wednesday
281,20.000000000000278
282,-5.273204848488012
283,2.45252405452049
2,10, 1,10, 0, 5, 0.00,60.00,Wednesday
281,20.000000000000108
282,-5.792784681922983
283,2.2123037579093158
2,10, 1,10, 0, 6, 0.00,60.00,Wednesday
281,20.000000000000005
282,-6.374148128733199
283,1.9563811370222897
2,10, 1,10, 0, 7, 0.00,60.00,Wednesday
281,20.000000000000207
282,-6.803041621465114
283,1.9938696465679414
2,10, 1,10, 0, 8, 0.00,60.00,Wednesday
281,20.000000000000026
282,-6.600183625675481
283,1.9990723699490057
2,10, 1,10, 0, 9, 0.00,60.00,Wednesday
281,20.00000000000008
282,-4.859581768608407
283,2.5182571117030978
2,10, 1,10, 0,10, 0.00,60.00,Wednesday
281,19.99999999999995
282,-1.5413491571099672
283,3.2493080615833516
2,10, 1,10, 0,11, 0.00,60.00,Wednesday
281,20.000000000000058
282,2.701356664346662
283,4.0325225751721229
2,10, 1,10, 0,12, 0.00,60.00,Wednesday
281,20.000000000000005
282,7.271095679247633
283,4.792774963565113
2,10, 1,10, 0,13, 0.00,60.00,Wednesday
281,20.250819718378698
282,11.941668685111774
283,5.6661948081805619
2,10, 1,10, 0,14, 0.00,60.00,Wednesday
281,20.452246871907037
282,15.187423833685286
283,5.961864130063474
2,10, 1,10, 0,15, 0.00,60.00,Wednesday
281,20.79396713869112
282,17.00317399896217
283,6.102175450648677
2,10, 1,10, 0,16, 0.00,60.00,Wednesday
281,20.986518419807294
282,16.55784513648172
283,6.186460123381332
2,10, 1,10, 0,17, 0.00,60.00,Wednesday
281,20.563302410558756
282,14.00935389457565
283,5.640093744677636
2,10, 1,10, 0,18, 0.00,60.00,Wednesday
281,20.00223696737937
282,10.426689696456766
283,4.917793924590055
2,10, 1,10, 0,19, 0.00,60.00,Wednesday
281,20.000037840523367
282,6.890518024803443
283,4.560300882757953
2,10, 1,10, 0,20, 0.00,60.00,Wednesday
281,20.000000850400878
282,3.9673055073277356
283,4.219902525131787
2,10, 1,10, 0,21, 0.00,60.00,Wednesday
281,20.000000025784745
282,1.910714806978697
283,4.2586441890062469
2,10, 1,10, 0,22, 0.00,60.00,Wednesday
281,20.000000001203455
282,0.27333759829819939
283,3.7054387913980126
2,10, 1,10, 0,23, 0.00,60.00,Wednesday
281,20.00000000006334
282,-1.294776004202568
283,3.308344354013049
2,10, 1,10, 0,24, 0.00,60.00,Wednesday
281,20.00000000000355
282,-2.5659347458802488
283,3.026612796079246
2,11, 1,11, 0, 1, 0.00,60.00,Thursday
281,20.000000000000325
282,-3.617132041328116
283,2.727537510813306
2,11, 1,11, 0, 2, 0.00,60.00,Thursday
281,20.000000000000019
282,-4.554106750380295
283,2.4485867951969579
2,11, 1,11, 0, 3, 0.00,60.00,Thursday
281,20.000000000000058
282,-5.419032091499785
283,2.278885224523165
2,11, 1,11, 0, 4, 0.00,60.00,Thursday
281,20.000000000000147
282,-5.928675336013675
283,2.220098516774634
2,11, 1,11, 0, 5, 0.00,60.00,Thursday
281,19.999999999999877
282,-6.056169630812764
283,2.187644064805646
2,11, 1,11, 0, 6, 0.00,60.00,Thursday
281,20.00000000000012
282,-5.934020632026524
283,2.2710505421375024
2,11, 1,11, 0, 7, 0.00,60.00,Thursday
281,20.000000000000044
282,-5.748737568811896
283,2.1884654748972696
2,11, 1,11, 0, 8, 0.00,60.00,Thursday
281,19.99999999999988
282,-5.351483335366036
283,2.2082915908620666
2,11, 1,11, 0, 9, 0.00,60.00,Thursday
281,20.000000000000204
282,-4.048138931830205
283,2.4538638805328709
2,11, 1,11, 0,10, 0.00,60.00,Thursday
281,20.00000000000001
282,-1.2977480217921054
283,3.0174854356538227
2,11, 1,11, 0,11, 0.00,60.00,Thursday
281,20.000000000000047
282,3.0745239567199844
283,4.397502941429433
2,11, 1,11, 0,12, 0.00,60.00,Thursday
281,20.0
282,8.617013436828286
283,5.261185943186805
2,11, 1,11, 0,13, 0.00,60.00,Thursday
281,20.18500212287433
282,12.692807592237136
283,6.211984884399931
2,11, 1,11, 0,14, 0.00,60.00,Thursday
281,20.504483490939994
282,14.913877016411706
283,6.83759355187537
2,11, 1,11, 0,15, 0.00,60.00,Thursday
281,20.440831442169967
282,15.458887533789792
283,7.326703020819098
2,11, 1,11, 0,16, 0.00,60.00,Thursday
281,20.123089391917295
282,14.538435171604558
283,7.237366963885405
2,11, 1,11, 0,17, 0.00,60.00,Thursday
281,20.000658864854523
282,12.586590905389498
283,7.032381530181144
2,11, 1,11, 0,18, 0.00,60.00,Thursday
281,20.000006409470325
282,10.373677053759629
283,6.980102843821823
2,11, 1,11, 0,19, 0.00,60.00,Thursday
281,20.000000078240828
282,8.697502247585744
283,6.852287159298901
2,11, 1,11, 0,20, 0.00,60.00,Thursday
281,20.000000001777456
282,7.336946016605153
283,6.411328047042024
2,11, 1,11, 0,21, 0.00,60.00,Thursday
281,20.000000000045384
282,6.114390546243798
283,6.013978972364249
2,11, 1,11, 0,22, 0.00,60.00,Thursday
281,20.00000000000105
282,5.432020359769284
283,6.3902139693016439
2,11, 1,11, 0,23, 0.00,60.00,Thursday
281,20.000000000000094
282,4.960763441647532
283,5.948232501539012
2,11, 1,11, 0,24, 0.00,60.00,Thursday
281,20.00000000000007
282,4.446892726636885
283,5.666610983832448
2,12, 1,12, 0, 1, 0.00,60.00,Friday
281,19.99999999999995
282,3.8514735087486064
283,5.365131819400195