Program Version,EnergyPlus, Version 9.2.0-921312fa1d, YMD=2019.11.06 07:58
1,5,Environment Title[],Latitude[deg],Longitude[deg],Time Zone[],Elevation[m]
2,8,Day of Simulation[],Month[],Day of Month[],DST Indicator[1=yes 0=no],Hour[],StartMinute[],EndMinute[],DayType
3,5,Cumulative Day of Simulation[],Month[],Day of Month[],DST Indicator[1=yes 0=no],DayType  ! When Daily Meters Requested
4,2,Cumulative Days of Simulation[],Month[]  ! When Monthly Meters Requested
5,1,Cumulative Days of Simulation[] ! When Run Period Meters Requested
6,1,Calendar Year of Simulation[] ! When Annual Meters Requested
617,11,Gas:Facility [J] !RunPeriod [Value,Min,Month,Day,Hour,Minute,Max,Month,Day,Hour,Minute]
16,11,Electricity:Facility [J] !RunPeriod [Value,Min,Month,Day,Hour,Minute,Max,Month,Day,Hour,Minute]
102,11,interior lighting:InteriorLights:Electricity [J] !RunPeriod [Value,Min,Month,Day,Hour,Minute,Max,Month,Day,Hour,Minute]
326,11,Heating:EnergyTransfer [J] !RunPeriod [Value,Min,Month,Day,Hour,Minute,Max,Month,Day,Hour,Minute]
115,11,InteriorEquipment:Electricity [J] !RunPeriod [Value,Min,Month,Day,Hour,Minute,Max,Month,Day,Hour,Minute]
351,11,Cooling:EnergyTransfer [J] !RunPeriod [Value,Min,Month,Day,Hour,Minute,Max,Month,Day,Hour,Minute]
476,11,Heating:DistrictHeating [J] !RunPeriod [Value,Min,Month,Day,Hour,Minute,Max,Month,Day,Hour,Minute]
513,11,Cooling:DistrictCooling [J] !RunPeriod [Value,Min,Month,Day,Hour,Minute,Max,Month,Day,Hour,Minute]
28,11,ExteriorLights:Electricity [J] !RunPeriod [Value,Min,Month,Day,Hour,Minute,Max,Month,Day,Hour,Minute]
152,11,clothes washer:InteriorEquipment:Electricity [J] !RunPeriod [Value,Min,Month,Day,Hour,Minute,Max,Month,Day,Hour,Minute]
191,11,fridge:InteriorEquipment:Electricity [J] !RunPeriod [Value,Min,Month,Day,Hour,Minute,Max,Month,Day,Hour,Minute]
178,11,dishwasher:InteriorEquipment:Electricity [J] !RunPeriod [Value,Min,Month,Day,Hour,Minute,Max,Month,Day,Hour,Minute]
139,11,clothes dryer:InteriorEquipment:Electricity [J] !RunPeriod [Value,Min,Month,Day,Hour,Minute,Max,Month,Day,Hour,Minute]
217,11,mech vent house fan:InteriorEquipment:Electricity [J] !RunPeriod [Value,Min,Month,Day,Hour,Minute,Max,Month,Day,Hour,Minute]
256,11,misc tv:InteriorEquipment:Electricity [J] !RunPeriod [Value,Min,Month,Day,Hour,Minute,Max,Month,Day,Hour,Minute]
243,11,misc plug loads:InteriorEquipment:Electricity [J] !RunPeriod [Value,Min,Month,Day,Hour,Minute,Max,Month,Day,Hour,Minute]
165,11,cooking range:InteriorEquipment:Electricity [J] !RunPeriod [Value,Min,Month,Day,Hour,Minute,Max,Month,Day,Hour,Minute]
613,1,Gas:Facility [J] !Hourly
12,1,Electricity:Facility [J] !Hourly
End of Data Dictionary
1,RUN PERIOD 1,  39.83,-104.65,  -7.00,1650.00
2,1, 1, 1, 0, 1, 0.00,60.00,Monday
12,2723289.6970321817
613,22304100.60101678
2,1, 1, 1, 0, 2, 0.00,60.00,Monday
12,2505112.0055279375
613,22384737.02718003
2,1, 1, 1, 0, 3, 0.00,60.00,Monday
12,2428943.9681219246
613,22356884.698601035
2,1, 1, 1, 0, 4, 0.00,60.00,Monday
12,2371294.7713582969
613,22443099.633261194
2,1, 1, 1, 0, 5, 0.00,60.00,Monday
12,2300561.356002583
613,22279906.242346709
2,1, 1, 1, 0, 6, 0.00,60.00,Monday
12,2565261.5280078027
613,21469066.440154986
2,1, 1, 1, 0, 7, 0.00,60.00,Monday
12,3262733.7210733506
613,20713384.44859483
2,1, 1, 1, 0, 8, 0.00,60.00,Monday
12,4921524.149871124
613,19563463.85595194
2,1, 1, 1, 0, 9, 0.00,60.00,Monday
12,9889184.58621166
613,17340511.5441037
2,1, 1, 1, 0,10, 0.00,60.00,Monday
12,3207322.575988331
613,11607569.753543199
2,1, 1, 1, 0,11, 0.00,60.00,Monday
12,3212721.4446467177
613,8245953.9552232599
2,1, 1, 1, 0,12, 0.00,60.00,Monday
12,4381278.442173889
613,5630231.203892338
2,1, 1, 1, 0,13, 0.00,60.00,Monday
12,4370447.943978555
613,4874075.6598072019
2,1, 1, 1, 0,14, 0.00,60.00,Monday
12,3140849.715108325
613,4378334.880810636
2,1, 1, 1, 0,15, 0.00,60.00,Monday
12,4383148.6836213539
613,3565078.7402153017
2,1, 1, 1, 0,16, 0.00,60.00,Monday
12,4777020.993089983
613,3747449.1654134567
2,1, 1, 1, 0,17, 0.00,60.00,Monday
12,3918856.544248518
613,6586097.184481227
2,1, 1, 1, 0,18, 0.00,60.00,Monday
12,6283258.212877332
613,8424970.977678542
2,1, 1, 1, 0,19, 0.00,60.00,Monday
12,15131263.395385663
613,10709033.138415702
2,1, 1, 1, 0,20, 0.00,60.00,Monday
12,5382250.524607401
613,11342899.38516315
2,1, 1, 1, 0,21, 0.00,60.00,Monday
12,5172974.399277646
613,12041070.558901117
2,1, 1, 1, 0,22, 0.00,60.00,Monday
12,5980152.113753271
613,12886290.48991864
2,1, 1, 1, 0,23, 0.00,60.00,Monday
12,4196765.117721351
613,13955139.600011912
2,1, 1, 1, 0,24, 0.00,60.00,Monday
12,3252880.3311558628
613,14864763.279391846
2,2, 1, 2, 0, 1, 0.00,60.00,Tuesday
12,2586545.52298146
613,15875424.680711484
2,2, 1, 2, 0, 2, 0.00,60.00,Tuesday
12,2386223.7080183716
613,16795509.254139078
2,2, 1, 2, 0, 3, 0.00,60.00,Tuesday
12,2316454.6323488985
613,17068487.666732219
2,2, 1, 2, 0, 4, 0.00,60.00,Tuesday
12,3421017.814667791
613,18443363.86272881
2,2, 1, 2, 0, 5, 0.00,60.00,Tuesday
12,2212475.603547984
613,18138780.964740285
2,2, 1, 2, 0, 6, 0.00,60.00,Tuesday
12,2501429.770817858
613,18468180.418893398
2,2, 1, 2, 0, 7, 0.00,60.00,Tuesday
12,3193407.1670235849
613,17454174.67420137
2,2, 1, 2, 0, 8, 0.00,60.00,Tuesday
12,4876455.860359767
613,15723674.069213175
2,2, 1, 2, 0, 9, 0.00,60.00,Tuesday
12,3419147.1048307807
613,14180277.18494186
2,2, 1, 2, 0,10, 0.00,60.00,Tuesday
12,4439912.847532391
613,9292094.169083143
2,2, 1, 2, 0,11, 0.00,60.00,Tuesday
12,4943399.897507038
613,5146262.048722065
2,2, 1, 2, 0,12, 0.00,60.00,Tuesday
12,3783572.902984463
613,2855016.8560435299
2,2, 1, 2, 0,13, 0.00,60.00,Tuesday
12,3075758.174511447
613,1857258.1407030305
2,2, 1, 2, 0,14, 0.00,60.00,Tuesday
12,3087143.6840796719
613,1853483.85263444
2,2, 1, 2, 0,15, 0.00,60.00,Tuesday
12,2942150.496119653
613,205471.83341302569
2,2, 1, 2, 0,16, 0.00,60.00,Tuesday
12,4393083.990331943
613,898879.7252094986
2,2, 1, 2, 0,17, 0.00,60.00,Tuesday
12,3831571.9161544467
613,2482634.7098530477
2,2, 1, 2, 0,18, 0.00,60.00,Tuesday
12,6091081.229377268
613,3556153.1951473515
2,2, 1, 2, 0,19, 0.00,60.00,Tuesday
12,5386450.010658277
613,5372953.789263232
2,2, 1, 2, 0,20, 0.00,60.00,Tuesday
12,5277884.0112978429
613,6436375.976344923
2,2, 1, 2, 0,21, 0.00,60.00,Tuesday
12,5084880.691766283
613,7899571.294744844
2,2, 1, 2, 0,22, 0.00,60.00,Tuesday
12,4693316.924368544
613,8203172.647374711
2,2, 1, 2, 0,23, 0.00,60.00,Tuesday
12,4074009.9162562
613,8184119.2751641259
2,2, 1, 2, 0,24, 0.00,60.00,Tuesday
12,8901009.629843809
613,9887249.27833787
2,3, 1, 3, 0, 1, 0.00,60.00,Wednesday
12,3103038.083338325
613,10981725.039123347
2,3, 1, 3, 0, 2, 0.00,60.00,Wednesday
12,2280468.233733363
613,11823687.414589836
2,3, 1, 3, 0, 3, 0.00,60.00,Wednesday
12,2223619.502800308
613,12704082.630609267
2,3, 1, 3, 0, 4, 0.00,60.00,Wednesday
12,2184021.805740769
613,13638942.432801594
2,3, 1, 3, 0, 5, 0.00,60.00,Wednesday
12,2129419.7596463367
613,14234123.91124778
2,3, 1, 3, 0, 6, 0.00,60.00,Wednesday
12,3546240.514611001
613,14238232.95810527
2,3, 1, 3, 0, 7, 0.00,60.00,Wednesday
12,3120239.5018683837
613,14014384.93256505
2,3, 1, 3, 0, 8, 0.00,60.00,Wednesday
12,3632651.8933421208
613,13512682.364927039
2,3, 1, 3, 0, 9, 0.00,60.00,Wednesday
12,3338075.1238036279
613,10368886.346108864
2,3, 1, 3, 0,10, 0.00,60.00,Wednesday
12,15817116.187517923
613,8295089.918147013
2,3, 1, 3, 0,11, 0.00,60.00,Wednesday
12,13592398.138672367
613,5439890.727303448
2,3, 1, 3, 0,12, 0.00,60.00,Wednesday
12,3484962.8989152235
613,2056402.9323452623
2,3, 1, 3, 0,13, 0.00,60.00,Wednesday
12,3066399.4939968695
613,1417283.827445776
2,3, 1, 3, 0,14, 0.00,60.00,Wednesday
12,3079231.0167012365
613,1481490.1308231853
2,3, 1, 3, 0,15, 0.00,60.00,Wednesday
12,4287247.512942525
613,1571619.8070794855
2,3, 1, 3, 0,16, 0.00,60.00,Wednesday
12,3274183.321032718
613,4264357.145677546
2,3, 1, 3, 0,17, 0.00,60.00,Wednesday
12,3937980.3633818069
613,7485154.394193484
2,3, 1, 3, 0,18, 0.00,60.00,Wednesday
12,5034894.909972236
613,9123300.01495941
2,3, 1, 3, 0,19, 0.00,60.00,Wednesday
12,6695889.994810336
613,9511985.236845395
2,3, 1, 3, 0,20, 0.00,60.00,Wednesday
12,15764012.73182476
613,10280413.184584815
2,3, 1, 3, 0,21, 0.00,60.00,Wednesday
12,5566865.1469642859
613,12622300.774330629
2,3, 1, 3, 0,22, 0.00,60.00,Wednesday
12,4824497.038011057
613,14370268.56682307
2,3, 1, 3, 0,23, 0.00,60.00,Wednesday
12,4251040.790214588
613,16506770.857707983
2,3, 1, 3, 0,24, 0.00,60.00,Wednesday
12,4503331.591172756
613,18364576.339988345
2,4, 1, 4, 0, 1, 0.00,60.00,Thursday
12,2676243.433263598
613,20092341.41544999
2,4, 1, 4, 0, 2, 0.00,60.00,Thursday
12,3692198.2458664646
613,22823141.349156437
2,4, 1, 4, 0, 3, 0.00,60.00,Thursday
12,2462233.152713408
613,23921890.161360209
2,4, 1, 4, 0, 4, 0.00,60.00,Thursday
12,2405134.5623577765
613,24033990.441273448
2,4, 1, 4, 0, 5, 0.00,60.00,Thursday
12,2346875.577363748
613,24457250.335425009
2,4, 1, 4, 0, 6, 0.00,60.00,Thursday
12,3761230.3575037468
613,24344136.96128227
2,4, 1, 4, 0, 7, 0.00,60.00,Thursday
12,3319324.663961495
613,23373862.193829098
2,4, 1, 4, 0, 8, 0.00,60.00,Thursday
12,4708833.062583303
613,20612189.59436074
2,4, 1, 4, 0, 9, 0.00,60.00,Thursday
12,14900018.050809326
613,18766492.041227085
2,4, 1, 4, 0,10, 0.00,60.00,Thursday
12,4873994.062148429
613,14955684.591028754
2,4, 1, 4, 0,11, 0.00,60.00,Thursday
12,4450067.559067399
613,12947825.161042169
2,4, 1, 4, 0,12, 0.00,60.00,Thursday
12,8445277.43981972
613,12300484.423956486
2,4, 1, 4, 0,13, 0.00,60.00,Thursday
12,3251001.362713375
613,10095866.271630716
2,4, 1, 4, 0,14, 0.00,60.00,Thursday
12,3238560.424264209
613,8971952.762281722
2,4, 1, 4, 0,15, 0.00,60.00,Thursday
12,4295474.5020953579
613,7714324.980745731
2,4, 1, 4, 0,16, 0.00,60.00,Thursday
12,4022338.217621327
613,8014996.196776187
2,4, 1, 4, 0,17, 0.00,60.00,Thursday
12,4271907.4107957319
613,8304235.771641314
2,4, 1, 4, 0,18, 0.00,60.00,Thursday
12,5010055.665467767
613,7955546.769653169
2,4, 1, 4, 0,19, 0.00,60.00,Thursday
12,5439164.943668788
613,7851210.891167079
2,4, 1, 4, 0,20, 0.00,60.00,Thursday
12,7987106.346019052
613,7351837.535842512
2,4, 1, 4, 0,21, 0.00,60.00,Thursday
12,6213568.876899743
613,7612037.324255868
2,4, 1, 4, 0,22, 0.00,60.00,Thursday
12,4686026.781061353
613,7860445.294930958
2,4, 1, 4, 0,23, 0.00,60.00,Thursday
12,5313201.445410996
613,8513026.088514639
2,4, 1, 4, 0,24, 0.00,60.00,Thursday
12,2906154.5207944174
613,7026577.77858619
2,5, 1, 5, 0, 1, 0.00,60.00,Friday
12,2447984.833679298
613,9361349.964173202
2,5, 1, 5, 0, 2, 0.00,60.00,Friday
12,2006923.8027149777
613,7425936.392718207
2,5, 1, 5, 0, 3, 0.00,60.00,Friday
12,2241166.578291183
613,7211314.166193579
2,5, 1, 5, 0, 4, 0.00,60.00,Friday
12,2880962.113977677
613,7839881.0266554639
2,5, 1, 5, 0, 5, 0.00,60.00,Friday
12,1994457.2601353655
613,7889208.840653462
2,5, 1, 5, 0, 6, 0.00,60.00,Friday
12,6164367.39637954
613,7571034.522145343
2,5, 1, 5, 0, 7, 0.00,60.00,Friday
12,13359814.393082787
613,9756579.401241214
2,5, 1, 5, 0, 8, 0.00,60.00,Friday
12,3436570.911349969
613,5734898.187595425
2,5, 1, 5, 0, 9, 0.00,60.00,Friday
12,3168024.6420975259
613,2374399.9662003328
2,5, 1, 5, 0,10, 0.00,60.00,Friday
12,2780418.3054415865
613,0.0
2,5, 1, 5, 0,11, 0.00,60.00,Friday
12,19681722.007068397
613,0.0
2,5, 1, 5, 0,12, 0.00,60.00,Friday
12,14678399.758608969
613,0.0
2,5, 1, 5, 0,13, 0.00,60.00,Friday
12,4159339.5859275546
613,0.0
2,5, 1, 5, 0,14, 0.00,60.00,Friday
12,4051087.2646200854
613,0.0
2,5, 1, 5, 0,15, 0.00,60.00,Friday
12,2937779.9108702077
613,0.0
2,5, 1, 5, 0,16, 0.00,60.00,Friday
12,3183476.3071823019
613,0.0
2,5, 1, 5, 0,17, 0.00,60.00,Friday
12,3778763.8671756165
613,0.0
2,5, 1, 5, 0,18, 0.00,60.00,Friday
12,7403734.065048465
613,0.0
2,5, 1, 5, 0,19, 0.00,60.00,Friday
12,5272162.070616869
613,0.0
2,5, 1, 5, 0,20, 0.00,60.00,Friday
12,8069013.186450491
613,0.0
2,5, 1, 5, 0,21, 0.00,60.00,Friday
12,6280431.694897123
613,0.0
2,5, 1, 5, 0,22, 0.00,60.00,Friday
12,7726404.982225282
613,1413304.0341546296
2,5, 1, 5, 0,23, 0.00,60.00,Friday
12,3963504.5193778586
613,2988992.0318486725
2,5, 1, 5, 0,24, 0.00,60.00,Friday
12,3035346.85910743
613,4637986.136407724
2,6, 1, 6, 0, 1, 0.00,60.00,Saturday
12,2373271.8922782365
613,5848913.031086542
2,6, 1, 6, 0, 2, 0.00,60.00,Saturday
12,4872894.44348564
613,6413601.77112006
2,6, 1, 6, 0, 3, 0.00,60.00,Saturday
12,2115734.633671584
613,7632152.764874276
2,6, 1, 6, 0, 4, 0.00,60.00,Saturday
12,3220383.964320444
613,9008106.834971186
2,6, 1, 6, 0, 5, 0.00,60.00,Saturday
12,2044670.0553375334
613,10249834.363812227
2,6, 1, 6, 0, 6, 0.00,60.00,Saturday
12,17799602.943317549
613,11823516.256780608
2,6, 1, 6, 0, 7, 0.00,60.00,Saturday
12,5586826.818103446
613,11580093.65267843
2,6, 1, 6, 0, 8, 0.00,60.00,Saturday
12,3588638.211258175
613,11443492.21374677
2,6, 1, 6, 0, 9, 0.00,60.00,Saturday
12,3297420.3194169288
613,8457605.197790597
2,6, 1, 6, 0,10, 0.00,60.00,Saturday
12,5727425.980044625
613,6344240.947703647
2,6, 1, 6, 0,11, 0.00,60.00,Saturday
12,3122057.0198617598
613,3983599.0250074097
2,6, 1, 6, 0,12, 0.00,60.00,Saturday
12,5331730.798514564
613,1749315.3003635808
2,6, 1, 6, 0,13, 0.00,60.00,Saturday
12,10639088.394475708
613,339334.4291347964
2,6, 1, 6, 0,14, 0.00,60.00,Saturday
12,5637730.278033892
613,501430.8452985415
2,6, 1, 6, 0,15, 0.00,60.00,Saturday
12,3117779.9108702077
613,0.0
2,6, 1, 6, 0,16, 0.00,60.00,Saturday
12,4380227.6747091
613,0.0
2,6, 1, 6, 0,17, 0.00,60.00,Saturday
12,3833793.8028454838
613,2587091.0025432195
2,6, 1, 6, 0,18, 0.00,60.00,Saturday
12,7552610.071726689
613,5447523.330522437
2,6, 1, 6, 0,19, 0.00,60.00,Saturday
12,10430558.648736712
613,6874183.758857372
2,6, 1, 6, 0,20, 0.00,60.00,Saturday
12,6546049.315545512
613,8099381.009143789
2,6, 1, 6, 0,21, 0.00,60.00,Saturday
12,9238419.23712238
613,9362963.286706707
2,6, 1, 6, 0,22, 0.00,60.00,Saturday
12,23880371.942864635
613,11694654.7179709
2,6, 1, 6, 0,23, 0.00,60.00,Saturday
12,6679922.342060782
613,12962919.901912934
2,6, 1, 6, 0,24, 0.00,60.00,Saturday
12,4396295.704292733
613,14996979.66414701
2,7, 1, 7, 0, 1, 0.00,60.00,Sunday
12,2598371.1374578599
613,16431375.55434098
2,7, 1, 7, 0, 2, 0.00,60.00,Sunday
12,2390432.3205525155
613,16993366.356600427
2,7, 1, 7, 0, 3, 0.00,60.00,Sunday
12,2363045.1586882139
613,19258821.528274348
2,7, 1, 7, 0, 4, 0.00,60.00,Sunday
12,5192903.588331273
613,21024263.82957681
2,7, 1, 7, 0, 5, 0.00,60.00,Sunday
12,15462341.887235299
613,23309109.289134738
2,7, 1, 7, 0, 6, 0.00,60.00,Sunday
12,2826317.148480487
613,22807800.42013971
2,7, 1, 7, 0, 7, 0.00,60.00,Sunday
12,8552677.810754454
613,23202345.65258747
2,7, 1, 7, 0, 8, 0.00,60.00,Sunday
12,4893155.533036702
613,17576750.272816615
2,7, 1, 7, 0, 9, 0.00,60.00,Sunday
12,3469840.2937120876
613,16563487.18234815
2,7, 1, 7, 0,10, 0.00,60.00,Sunday
12,7496344.740245875
613,15673546.99589271
2,7, 1, 7, 0,11, 0.00,60.00,Sunday
12,3586147.834511878
613,14096464.826225538
2,7, 1, 7, 0,12, 0.00,60.00,Sunday
12,3378931.5957882876
613,12525225.460405982
2,7, 1, 7, 0,13, 0.00,60.00,Sunday
12,4693822.368368452
613,11748031.666449195
2,7, 1, 7, 0,14, 0.00,60.00,Sunday
12,3307450.1013989516
613,11589821.473070194
2,7, 1, 7, 0,15, 0.00,60.00,Sunday
12,3359192.206181117
613,11349378.651811643
2,7, 1, 7, 0,16, 0.00,60.00,Sunday
12,3428425.832886315
613,11515672.44831578
2,7, 1, 7, 0,17, 0.00,60.00,Sunday
12,10491306.375855769
613,11397114.595123673
2,7, 1, 7, 0,18, 0.00,60.00,Sunday
12,8252761.743204713
613,10219091.372309916
2,7, 1, 7, 0,19, 0.00,60.00,Sunday
12,5473878.128794858
613,9483162.079480926
2,7, 1, 7, 0,20, 0.00,60.00,Sunday
12,5343364.79968254
613,9514786.961336272
2,7, 1, 7, 0,21, 0.00,60.00,Sunday
12,5139955.801736694
613,10488786.050933417
2,7, 1, 7, 0,22, 0.00,60.00,Sunday
12,5996446.872839514
613,11959191.101806369
2,7, 1, 7, 0,23, 0.00,60.00,Sunday
12,5295791.146412395
613,12121238.906544442
2,7, 1, 7, 0,24, 0.00,60.00,Sunday
12,3186459.8817137645
613,11742176.544648106
2,8, 1, 8, 0, 1, 0.00,60.00,Monday
12,2508296.2568248345
613,12196736.527342163
2,8, 1, 8, 0, 2, 0.00,60.00,Monday
12,3436300.591299408
613,12809427.06391081
2,8, 1, 8, 0, 3, 0.00,60.00,Monday
12,2249514.2965609489
613,13921459.811508792
2,8, 1, 8, 0, 4, 0.00,60.00,Monday
12,2217785.7360268819
613,15226266.844331457
2,8, 1, 8, 0, 5, 0.00,60.00,Monday
12,2171485.5446581656
613,16211738.687537821
2,8, 1, 8, 0, 6, 0.00,60.00,Monday
12,2451268.3780570568
613,16109971.449414889
2,8, 1, 8, 0, 7, 0.00,60.00,Monday
12,3175629.0693008347
613,16618383.098198386
2,8, 1, 8, 0, 8, 0.00,60.00,Monday
12,4817716.62213031
613,14672976.935999683
2,8, 1, 8, 0, 9, 0.00,60.00,Monday
12,9713014.792291135
613,8295408.294967411
2,8, 1, 8, 0,10, 0.00,60.00,Monday
12,3048118.743882659
613,4123010.729489771
2,8, 1, 8, 0,11, 0.00,60.00,Monday
12,3084956.4529028136
613,2239411.2152204748
2,8, 1, 8, 0,12, 0.00,60.00,Monday
12,4276194.822904977
613,685448.6847575052
2,8, 1, 8, 0,13, 0.00,60.00,Monday
12,4087740.3976045555
613,0.0
2,8, 1, 8, 0,14, 0.00,60.00,Monday
12,2867718.2842482228
613,0.0
2,8, 1, 8, 0,15, 0.00,60.00,Monday
12,4307605.479312144
613,0.0
2,8, 1, 8, 0,16, 0.00,60.00,Monday
12,4697838.112901327
613,0.0
2,8, 1, 8, 0,17, 0.00,60.00,Monday
12,3778763.8671756165
613,0.0
2,8, 1, 8, 0,18, 0.00,60.00,Monday
12,6120292.123622544
613,722666.0489788537
2,8, 1, 8, 0,19, 0.00,60.00,Monday
12,15077851.45035943
613,3532877.934041569
2,8, 1, 8, 0,20, 0.00,60.00,Monday
12,5238816.4064024
613,4420309.761716588
2,8, 1, 8, 0,21, 0.00,60.00,Monday
12,5024802.663050017
613,5075157.170861168
2,8, 1, 8, 0,22, 0.00,60.00,Monday
12,5844414.637442885
613,6483094.269100102
2,8, 1, 8, 0,23, 0.00,60.00,Monday
12,4053638.980341736
613,7226432.074985345
2,8, 1, 8, 0,24, 0.00,60.00,Monday
12,3134128.8875560096
613,9281969.34121134
2,9, 1, 9, 0, 1, 0.00,60.00,Tuesday
12,2484087.946821347
613,11058645.046143271
2,9, 1, 9, 0, 2, 0.00,60.00,Tuesday
12,2287081.0358040577
613,12134571.309517978
2,9, 1, 9, 0, 3, 0.00,60.00,Tuesday
12,2231554.4897780495
613,13077125.651022094
2,9, 1, 9, 0, 4, 0.00,60.00,Tuesday
12,2189353.6506499687
613,13889605.418749787
2,9, 1, 9, 0, 5, 0.00,60.00,Tuesday
12,3276927.899980832
613,14830464.298794069
2,9, 1, 9, 0, 6, 0.00,60.00,Tuesday
12,2429237.7995271089
613,15074260.416831244
2,9, 1, 9, 0, 7, 0.00,60.00,Tuesday
12,3156464.9373866829
613,15717430.686694812
2,9, 1, 9, 0, 8, 0.00,60.00,Tuesday
12,4821701.544985931
613,13119594.013612617
2,9, 1, 9, 0, 9, 0.00,60.00,Tuesday
12,3298895.9262048855
613,8526977.05872311
2,9, 1, 9, 0,10, 0.00,60.00,Tuesday
12,4351328.515429774
613,5051442.9364010519
2,9, 1, 9, 0,11, 0.00,60.00,Tuesday
12,4328714.379295024
613,2869133.2306024625
2,9, 1, 9, 0,12, 0.00,60.00,Tuesday
12,4282515.217401669
613,1652439.4398474512
2,9, 1, 9, 0,13, 0.00,60.00,Tuesday
12,3048464.71572068
613,574126.3178806118
2,9, 1, 9, 0,14, 0.00,60.00,Tuesday
12,3047718.2842482228
613,0.0
2,9, 1, 9, 0,15, 0.00,60.00,Tuesday
12,3117779.9108702077
613,0.0
2,9, 1, 9, 0,16, 0.00,60.00,Tuesday
12,4374497.430233425
613,0.0
2,9, 1, 9, 0,17, 0.00,60.00,Tuesday
12,3783908.1078228207
613,241843.25369993266
2,9, 1, 9, 0,18, 0.00,60.00,Tuesday
12,6097753.733677203
613,3847983.202108276
2,9, 1, 9, 0,19, 0.00,60.00,Tuesday
12,5368856.539096972
613,4545841.937764644
2,9, 1, 9, 0,20, 0.00,60.00,Tuesday
12,5248905.617333191
613,5074031.256484528
2,9, 1, 9, 0,21, 0.00,60.00,Tuesday
12,5064086.800248651
613,6921999.923848557
2,9, 1, 9, 0,22, 0.00,60.00,Tuesday
12,4687959.554251627
613,7951309.659383627
2,9, 1, 9, 0,23, 0.00,60.00,Tuesday
12,4104682.7653078527
613,9626124.446312242
2,9, 1, 9, 0,24, 0.00,60.00,Tuesday
12,9049674.745238334
613,12099685.25872882
2,10, 1,10, 0, 1, 0.00,60.00,Wednesday
12,3100331.523132912
613,13129508.766865438
2,10, 1,10, 0, 2, 0.00,60.00,Wednesday
12,2334811.2398007346
613,14378484.187231366
2,10, 1,10, 0, 3, 0.00,60.00,Wednesday
12,2274766.5711005867
613,15108630.602461046
2,10, 1,10, 0, 4, 0.00,60.00,Wednesday
12,2240497.705783261
613,16294011.73429936
2,10, 1,10, 0, 5, 0.00,60.00,Wednesday
12,2192134.5261174498
613,17182497.484449276
2,10, 1,10, 0, 6, 0.00,60.00,Wednesday
12,3624200.724288624
613,17903166.74302759
2,10, 1,10, 0, 7, 0.00,60.00,Wednesday
12,3190078.3458938079
613,17297678.70361573
2,10, 1,10, 0, 8, 0.00,60.00,Wednesday
12,3672886.5865060004
613,15404213.063760063
2,10, 1,10, 0, 9, 0.00,60.00,Wednesday
12,3326061.113772239
613,9804078.539624567
2,10, 1,10, 0,10, 0.00,60.00,Wednesday
12,16561025.823383835
613,6136605.594155787
2,10, 1,10, 0,11, 0.00,60.00,Wednesday
12,12613606.115750604
613,3416805.536443375
2,10, 1,10, 0,12, 0.00,60.00,Wednesday
12,3921695.642566605
613,525907.4571896099
2,10, 1,10, 0,13, 0.00,60.00,Wednesday
12,3036252.4919108918
613,0.0
2,10, 1,10, 0,14, 0.00,60.00,Wednesday
12,3047718.2842482228
613,0.0
2,10, 1,10, 0,15, 0.00,60.00,Wednesday
12,4253708.841032013
613,0.0
2,10, 1,10, 0,16, 0.00,60.00,Wednesday
12,3183476.3071823019
613,0.0
2,10, 1,10, 0,17, 0.00,60.00,Wednesday
12,3778763.8671756165
613,0.0
2,10, 1,10, 0,18, 0.00,60.00,Wednesday
12,4868155.527496187
613,1284476.4560650229
2,10, 1,10, 0,19, 0.00,60.00,Wednesday
12,6573168.067128752
613,3686984.1184724357
2,10, 1,10, 0,20, 0.00,60.00,Wednesday
12,15704554.448715108
613,4118990.2559175428
2,10, 1,10, 0,21, 0.00,60.00,Wednesday
12,5390764.608216525
613,5245118.830320225
2,10, 1,10, 0,22, 0.00,60.00,Wednesday
12,4671810.769570992
613,7192116.048838439
2,10, 1,10, 0,23, 0.00,60.00,Wednesday
12,4090179.8458447095
613,8944306.95921218
2,10, 1,10, 0,24, 0.00,60.00,Wednesday
12,4349109.4081535269
613,11088238.300114302
2,11, 1,11, 0, 1, 0.00,60.00,Thursday
12,2518282.301349305
613,12666204.74724417
2,11, 1,11, 0, 2, 0.00,60.00,Thursday
12,3508854.333666283
613,14177510.305938565
2,11, 1,11, 0, 3, 0.00,60.00,Thursday
12,2272172.6796354658
613,14986685.461342834
2,11, 1,11, 0, 4, 0.00,60.00,Thursday
12,2228412.158783554
613,15725840.801094437
2,11, 1,11, 0, 5, 0.00,60.00,Thursday
12,2173543.8447852956
613,16308504.378331585
2,11, 1,11, 0, 6, 0.00,60.00,Thursday
12,3585882.394758601
613,16099675.716496019
2,11, 1,11, 0, 7, 0.00,60.00,Thursday
12,3165178.638116131
613,16127082.93290585
2,11, 1,11, 0, 8, 0.00,60.00,Thursday
12,4868411.388496075
613,15190950.412462142
2,11, 1,11, 0, 9, 0.00,60.00,Thursday
12,14866648.232636733
613,12964782.171873179
2,11, 1,11, 0,10, 0.00,60.00,Thursday
12,4541869.325037245
613,7671248.697032925
2,11, 1,11, 0,11, 0.00,60.00,Thursday
12,4221859.937855562
613,3766895.3462197247
2,11, 1,11, 0,12, 0.00,60.00,Thursday
12,8246137.056325688
613,1442108.4161227837
2,11, 1,11, 0,13, 0.00,60.00,Thursday
12,2856252.4919108918
613,0.0
2,11, 1,11, 0,14, 0.00,60.00,Thursday
12,2867718.2842482228
613,0.0
2,11, 1,11, 0,15, 0.00,60.00,Thursday
12,4132039.678099565
613,0.0
2,11, 1,11, 0,16, 0.00,60.00,Thursday
12,4180915.73142279
613,0.0
2,11, 1,11, 0,17, 0.00,60.00,Thursday
12,3804067.7976595449
613,1189599.262421025
2,11, 1,11, 0,18, 0.00,60.00,Thursday
12,4878095.854808563
613,1751795.3987303677
2,11, 1,11, 0,19, 0.00,60.00,Thursday
12,6453869.526559589
613,1980802.0405305515
2,11, 1,11, 0,20, 0.00,60.00,Thursday
12,7903167.300451573
613,3181062.498955613
2,11, 1,11, 0,21, 0.00,60.00,Thursday
12,5003350.950523941
613,4066660.0358055646
2,11, 1,11, 0,22, 0.00,60.00,Thursday
12,4602482.975726542
613,3932847.988684067
2,11, 1,11, 0,23, 0.00,60.00,Thursday
12,5248576.82272306
613,5404110.142947763
2,11, 1,11, 0,24, 0.00,60.00,Thursday
12,3075446.8461381748
613,6523183.972576449
2,12, 1,12, 0, 1, 0.00,60.00,Friday
12,2417547.9432061805
613,7930437.77919834
2,12, 1,12, 0, 2, 0.00,60.00,Friday
12,3374513.337211881
613,9908497.462531204
2,12, 1,12, 0, 3, 0.00,60.00,Friday
12,2189311.53272694
613,11091181.586624679
2,12, 1,12, 0, 4, 0.00,60.00,Friday
12,2168386.937103765
613,12903909.26432042
2,12, 1,12, 0, 5, 0.00,60.00,Friday
12,2132940.5721538469
613,14399645.863053525
2,12, 1,12, 0, 6, 0.00,60.00,Friday
12,6961948.829544197
613,15004157.990792474
2,12, 1,12, 0, 7, 0.00,60.00,Friday
12,12857712.899555639
613,16185764.101091249
2,12, 1,12, 0, 8, 0.00,60.00,Friday
12,3665583.6077038489
613,15060882.283507016
2,12, 1,12, 0, 9, 0.00,60.00,Friday
12,3406340.4308802608
613,13578204.321388856
2,12, 1,12, 0,10, 0.00,60.00,Friday
12,3220588.8093534756
613,12231247.621940133
2,12, 1,12, 0,11, 0.00,60.00,Friday
12,20286039.967889515
613,11434380.359998923
2,12, 1,12, 0,12, 0.00,60.00,Friday
12,15273937.585574333
613,9195305.677741029
2,12, 1,12, 0,13, 0.00,60.00,Friday
12,4528635.949105252
613,8759180.068079075
2,12, 1,12, 0,14, 0.00,60.00,Friday
12,4404156.42866678
613,8084444.041842511
2,12, 1,12, 0,15, 0.00,60.00,Friday
12,3287636.966598856
613,7985392.954669384
2,12, 1,12, 0,16, 0.00,60.00,Friday
12,3352997.5371180607
613,7969604.968064818
2,12, 1,12, 0,17, 0.00,60.00,Friday
12,5116096.676257165
613,9522386.710635843
2,12, 1,12, 0,18, 0.00,60.00,Friday
12,6339029.327620475
613,10114535.08790632
2,12, 1,12, 0,19, 0.00,60.00,Friday
12,6643351.647527579
613,9473929.41947547
2,12, 1,12, 0,20, 0.00,60.00,Friday
12,7003555.011015259
613,9380043.923523376
2,12, 1,12, 0,21, 0.00,60.00,Friday
12,6517323.280936419
613,11070504.077557505
2,12, 1,12, 0,22, 0.00,60.00,Friday
12,7953047.444988402
613,11864558.421912823
2,12, 1,12, 0,23, 0.00,60.00,Friday
12,4164476.8373183675
613,12437189.075423357
2,12, 1,12, 0,24, 0.00,60.00,Friday
12,4350256.46731926
613,13103097.52048633
2,13, 1,13, 0, 1, 0.00,60.00,Saturday
12,2519497.280857421
613,12723323.886408313
2,13, 1,13, 0, 2, 0.00,60.00,Saturday
12,4996431.757006384
613,11960670.71764913
2,13, 1,13, 0, 3, 0.00,60.00,Saturday
12,2216449.7119144529
613,12367013.33795753
2,13, 1,13, 0, 4, 0.00,60.00,Saturday
12,2160393.1464306779
613,12528101.739292141
2,13, 1,13, 0, 5, 0.00,60.00,Saturday
12,2092878.7610245748
613,12516242.768783203
2,13, 1,13, 0, 6, 0.00,60.00,Saturday
12,18221774.07259282
613,13837502.76414672
2,13, 1,13, 0, 7, 0.00,60.00,Saturday
12,5876567.051330711
613,13023548.38158759
2,13, 1,13, 0, 8, 0.00,60.00,Saturday
12,3560874.8799593618
613,10138270.54249708
2,13, 1,13, 0, 9, 0.00,60.00,Saturday
12,3219505.4126956786
613,4794636.093995781
2,13, 1,13, 0,10, 0.00,60.00,Saturday
12,5611039.823613912
613,632255.294298225
2,13, 1,13, 0,11, 0.00,60.00,Saturday
12,3037322.0036349615
613,0.0
2,13, 1,13, 0,12, 0.00,60.00,Saturday
12,5295656.011780864
613,0.0
2,13, 1,13, 0,13, 0.00,60.00,Saturday
12,10645800.193276175
613,0.0
2,13, 1,13, 0,14, 0.00,60.00,Saturday
12,5492047.167722527
613,0.0
2,13, 1,13, 0,15, 0.00,60.00,Saturday
12,3117779.9108702077
613,0.0
2,13, 1,13, 0,16, 0.00,60.00,Saturday
12,4380572.547808405
613,0.0
2,13, 1,13, 0,17, 0.00,60.00,Saturday
12,3778763.8671756165
613,0.0
2,13, 1,13, 0,18, 0.00,60.00,Saturday
12,7439964.546268374
613,0.0
2,13, 1,13, 0,19, 0.00,60.00,Saturday
12,10311022.474847625
613,0.0
2,13, 1,13, 0,20, 0.00,60.00,Saturday
12,6374847.929236185
613,0.0
2,13, 1,13, 0,21, 0.00,60.00,Saturday
12,9042997.925956313
613,0.0
2,13, 1,13, 0,22, 0.00,60.00,Saturday
12,23722668.1340078
613,0.0
2,13, 1,13, 0,23, 0.00,60.00,Saturday
12,6627394.989183241
613,1703569.1791022469
2,13, 1,13, 0,24, 0.00,60.00,Saturday
12,4137391.1591884174
613,2821863.3193990255
2,14, 1,14, 0, 1, 0.00,60.00,Sunday
12,2308997.9595372697
613,2827239.2626530106
2,14, 1,14, 0, 2, 0.00,60.00,Sunday
12,2095801.1561879414
613,3142039.3448954385
2,14, 1,14, 0, 3, 0.00,60.00,Sunday
12,2031302.1052941853
613,3662774.428734378
2,14, 1,14, 0, 4, 0.00,60.00,Sunday
12,4858172.236490986
613,4881231.958522922
2,14, 1,14, 0, 5, 0.00,60.00,Sunday
12,15173584.964293445
613,6336382.165149581
2,14, 1,14, 0, 6, 0.00,60.00,Sunday
12,2571343.2792448389
613,6250678.528269374
2,14, 1,14, 0, 7, 0.00,60.00,Sunday
12,8235748.332569695
613,6752412.679858795
2,14, 1,14, 0, 8, 0.00,60.00,Sunday
12,4652486.454843225
613,6240242.849241076
2,14, 1,14, 0, 9, 0.00,60.00,Sunday
12,3194934.0993262578
613,3639478.9424400536
2,14, 1,14, 0,10, 0.00,60.00,Sunday
12,7290212.62912131
613,1630141.2815583056
2,14, 1,14, 0,11, 0.00,60.00,Sunday
12,2915658.6479398899
613,0.0
2,14, 1,14, 0,12, 0.00,60.00,Sunday
12,2932507.89802924
613,0.0
2,14, 1,14, 0,13, 0.00,60.00,Sunday
12,4264758.519042626
613,0.0
2,14, 1,14, 0,14, 0.00,60.00,Sunday
12,2880923.353997593
613,0.0
2,14, 1,14, 0,15, 0.00,60.00,Sunday
12,2937779.9108702077
613,0.0
2,14, 1,14, 0,16, 0.00,60.00,Sunday
12,3003476.3071823019
613,0.0
2,14, 1,14, 0,17, 0.00,60.00,Sunday
12,10173383.55268177
613,0.0
2,14, 1,14, 0,18, 0.00,60.00,Sunday
12,7989836.243383343
613,0.0
2,14, 1,14, 0,19, 0.00,60.00,Sunday
12,5272162.070616869
613,0.0
2,14, 1,14, 0,20, 0.00,60.00,Sunday
12,5151490.246907378
613,494297.9664084157
2,14, 1,14, 0,21, 0.00,60.00,Sunday
12,4973850.40985997
613,2679767.9307560788
2,14, 1,14, 0,22, 0.00,60.00,Sunday
12,5829040.5156309
613,4034011.9612501526
2,14, 1,14, 0,23, 0.00,60.00,Sunday
12,5147273.164160928
613,5135674.130930931
2,14, 1,14, 0,24, 0.00,60.00,Sunday
12,3085744.8668044276
613,7007318.949028111
2,15, 1,15, 0, 1, 0.00,60.00,Monday
12,3558905.5177240867
613,8238122.0600713579
2,15, 1,15, 0, 2, 0.00,60.00,Monday
12,2235238.0659431468
613,9697307.314210002
2,15, 1,15, 0, 3, 0.00,60.00,Monday
12,2179721.371948248
613,10640324.823637715
2,15, 1,15, 0, 4, 0.00,60.00,Monday
12,2144384.694032592
613,11775505.490367081
2,15, 1,15, 0, 5, 0.00,60.00,Monday
12,2090105.9911843488
613,12385888.120563977
2,15, 1,15, 0, 6, 0.00,60.00,Monday
12,2375421.5227983419
613,12544226.470387694
2,15, 1,15, 0, 7, 0.00,60.00,Monday
12,3112822.203732404
613,13665679.72262456
2,15, 1,15, 0, 8, 0.00,60.00,Monday
12,4756763.239400597
613,11791751.803314995
2,15, 1,15, 0, 9, 0.00,60.00,Monday
12,9668626.793149064
613,5249567.334974416
2,15, 1,15, 0,10, 0.00,60.00,Monday
12,2972697.285916182
613,577264.7109167154
2,15, 1,15, 0,11, 0.00,60.00,Monday
12,2857322.0036349615
613,0.0
2,15, 1,15, 0,12, 0.00,60.00,Monday
12,4081727.312181388
613,0.0
2,15, 1,15, 0,13, 0.00,60.00,Monday
12,4088666.6521516509
613,0.0
2,15, 1,15, 0,14, 0.00,60.00,Monday
12,2867718.2842482228
613,0.0