Program Version,EnergyPlus, Version 9.1.0-fafb9d5652, YMD=2019.09.26 13:40
1,5,Environment Title[],Latitude[deg],Longitude[deg],Time Zone[],Elevation[m]
2,8,Day of Simulation[],Month[],Day of Month[],DST Indicator[1=yes 0=no],Hour[],StartMinute[],EndMinute[],DayType
3,5,Cumulative Day of Simulation[],Month[],Day of Month[],DST Indicator[1=yes 0=no],DayType  ! When Daily Meters Requested
4,2,Cumulative Days of Simulation[],Month[]  ! When Monthly Meters Requested
5,1,Cumulative Days of Simulation[] ! When Run Period Meters Requested
6,1,Calendar Year of Simulation[] ! When Annual Meters Requested
611,1,Gas:Facility [J] !Hourly
12,1,Electricity:Facility [J] !Hourly
End of Data Dictionary
1,RUN PERIOD 1,  39.83,-104.65,  -7.00,1650.00
2,1, 1, 1, 0, 1, 0.00,60.00,Monday
12,2740309.7321012469
611,23104755.97454562
2,1, 1, 1, 0, 2, 0.00,60.00,Monday
12,2520477.6178810757
611,23107614.030584698
2,1, 1, 1, 0, 3, 0.00,60.00,Monday
12,2442372.426105212
611,22988688.782901
2,1, 1, 1, 0, 4, 0.00,60.00,Monday
12,2382695.5170280637
611,22979575.836152499
2,1, 1, 1, 0, 5, 0.00,60.00,Monday
12,2310053.251880461
611,22726637.2804439
2,1, 1, 1, 0, 6, 0.00,60.00,Monday
12,2573008.814564199
611,21833759.74848114
2,1, 1, 1, 0, 7, 0.00,60.00,Monday
12,3268886.817736208
611,21003112.96252745
2,1, 1, 1, 0, 8, 0.00,60.00,Monday
12,4926270.869173678
611,19787048.72231065
2,1, 1, 1, 0, 9, 0.00,60.00,Monday
12,9893227.015557096
611,17530936.993158144
2,1, 1, 1, 0,10, 0.00,60.00,Monday
12,3210084.0764393184
611,11737649.70964584
2,1, 1, 1, 0,11, 0.00,60.00,Monday
12,3213192.6541849195
611,8268286.365861886
2,1, 1, 1, 0,12, 0.00,60.00,Monday
12,4382329.1011640899
611,5679748.681389824
2,1, 1, 1, 0,13, 0.00,60.00,Monday
12,4371783.996230202
611,4936994.024823737
2,1, 1, 1, 0,14, 0.00,60.00,Monday
12,3145266.127390845
611,4586060.829099335
2,1, 1, 1, 0,15, 0.00,60.00,Monday
12,4389778.3634170819
611,3876840.3583052156
2,1, 1, 1, 0,16, 0.00,60.00,Monday
12,4786740.121765976
611,4204460.403515117
2,1, 1, 1, 0,17, 0.00,60.00,Monday
12,3930208.752775942
611,7119946.840891367
2,1, 1, 1, 0,18, 0.00,60.00,Monday
12,6299164.233312641
611,9172951.018468747
2,1, 1, 1, 0,19, 0.00,60.00,Monday
12,15152084.49969673
611,11688137.88289345
2,1, 1, 1, 0,20, 0.00,60.00,Monday
12,5405166.1641416209
611,12420489.236595652
2,1, 1, 1, 0,21, 0.00,60.00,Monday
12,5196330.515701797
611,13139383.923971609
2,1, 1, 1, 0,22, 0.00,60.00,Monday
12,6002856.874963305
611,13953999.768605955
2,1, 1, 1, 0,23, 0.00,60.00,Monday
12,4218055.713806693
611,14956387.32583597
2,1, 1, 1, 0,24, 0.00,60.00,Monday
12,3272336.3961810686
611,15779783.137943928
2,2, 1, 2, 0, 1, 0.00,60.00,Tuesday
12,2603817.9201630034
611,16687804.74265043
2,2, 1, 2, 0, 2, 0.00,60.00,Tuesday
12,2401218.9090855687
611,17500850.46394808
2,2, 1, 2, 0, 3, 0.00,60.00,Tuesday
12,2329179.3792387985
611,17667092.921458067
2,2, 1, 2, 0, 4, 0.00,60.00,Tuesday
12,3431643.7423051286
611,18943326.26209635
2,2, 1, 2, 0, 5, 0.00,60.00,Tuesday
12,2221387.728856939
611,18558164.980802578
2,2, 1, 2, 0, 6, 0.00,60.00,Tuesday
12,2508602.5395402328
611,18805798.4371915
2,2, 1, 2, 0, 7, 0.00,60.00,Tuesday
12,3199133.423311967
611,17723765.11064292
2,2, 1, 2, 0, 8, 0.00,60.00,Tuesday
12,4881193.308133954
611,15946739.59216081
2,2, 1, 2, 0, 9, 0.00,60.00,Tuesday
12,3422694.2717989648
611,14347349.953175813
2,2, 1, 2, 0,10, 0.00,60.00,Tuesday
12,4442617.253084216
611,9419439.570569246
2,2, 1, 2, 0,11, 0.00,60.00,Tuesday
12,4943822.889843741
611,5166259.992247091
2,2, 1, 2, 0,12, 0.00,60.00,Tuesday
12,3784264.5547602947
611,2887596.067297852
2,2, 1, 2, 0,13, 0.00,60.00,Tuesday
12,3077064.004145541
611,1918690.0663911866
2,2, 1, 2, 0,14, 0.00,60.00,Tuesday
12,3090048.1215859439
611,1990071.7705550907
2,2, 1, 2, 0,15, 0.00,60.00,Tuesday
12,2949163.1302874179
611,535164.4382539936
2,2, 1, 2, 0,16, 0.00,60.00,Tuesday
12,4401682.370184105
611,1303138.7795109384
2,2, 1, 2, 0,17, 0.00,60.00,Tuesday
12,3843006.545414685
611,3020270.0617159164
2,2, 1, 2, 0,18, 0.00,60.00,Tuesday
12,6104225.9127143439
611,4174207.424703662
2,2, 1, 2, 0,19, 0.00,60.00,Tuesday
12,5405921.714979554
611,6288502.603067122
2,2, 1, 2, 0,20, 0.00,60.00,Tuesday
12,5300202.011894603
611,7485762.116326499
2,2, 1, 2, 0,21, 0.00,60.00,Tuesday
12,5108498.19648299
611,9010083.411305342
2,2, 1, 2, 0,22, 0.00,60.00,Tuesday
12,4716849.653782828
611,9309705.783031995
2,2, 1, 2, 0,23, 0.00,60.00,Tuesday
12,4096540.688237085
611,9243546.519125304
2,2, 1, 2, 0,24, 0.00,60.00,Tuesday
12,8921905.032689982
611,10869829.186019034
2,3, 1, 3, 0, 1, 0.00,60.00,Wednesday
12,3122013.096950476
611,11874044.616980119
2,3, 1, 3, 0, 2, 0.00,60.00,Wednesday
12,2297444.4763705229
611,12622056.165640029
2,3, 1, 3, 0, 3, 0.00,60.00,Wednesday
12,2238530.258913952
611,13405364.865551494
2,3, 1, 3, 0, 4, 0.00,60.00,Wednesday
12,2196903.1365249527
611,14244834.696620938
2,3, 1, 3, 0, 5, 0.00,60.00,Wednesday
12,2140428.454865528
611,14751990.049169444
2,3, 1, 3, 0, 6, 0.00,60.00,Wednesday
12,3555576.6385400129
611,14677465.835477587
2,3, 1, 3, 0, 7, 0.00,60.00,Wednesday
12,3128047.041707631
611,14381748.930116972
2,3, 1, 3, 0, 8, 0.00,60.00,Wednesday
12,3639164.768827008
611,13819168.817784477
2,3, 1, 3, 0, 9, 0.00,60.00,Wednesday
12,3343915.962989764
611,10643709.723177653
2,3, 1, 3, 0,10, 0.00,60.00,Wednesday
12,15821444.527087974
611,8498760.393861456
2,3, 1, 3, 0,11, 0.00,60.00,Wednesday
12,13594438.709439287
611,5535943.237431883
2,3, 1, 3, 0,12, 0.00,60.00,Wednesday
12,3488268.2275938645
611,2211842.5385205729
2,3, 1, 3, 0,13, 0.00,60.00,Wednesday
12,3068477.453619443
611,1515006.6864598727
2,3, 1, 3, 0,14, 0.00,60.00,Wednesday
12,3081450.605352614
611,1585872.8548745928
2,3, 1, 3, 0,15, 0.00,60.00,Wednesday
12,4291596.510120775
611,1776115.3353766762
2,3, 1, 3, 0,16, 0.00,60.00,Wednesday
12,3281117.3595692177
611,4590442.917420209
2,3, 1, 3, 0,17, 0.00,60.00,Wednesday
12,3948378.4061054384
611,7974164.963283757
2,3, 1, 3, 0,18, 0.00,60.00,Wednesday
12,5048983.183149227
611,9785836.660550844
2,3, 1, 3, 0,19, 0.00,60.00,Wednesday
12,6714822.399225299
611,10402269.661243029
2,3, 1, 3, 0,20, 0.00,60.00,Wednesday
12,15784489.405941457
611,11243315.759870159
2,3, 1, 3, 0,21, 0.00,60.00,Wednesday
12,5587644.706481828
611,13599493.938158513
2,3, 1, 3, 0,22, 0.00,60.00,Wednesday
12,4844521.457298195
611,15311997.973400865
2,3, 1, 3, 0,23, 0.00,60.00,Wednesday
12,4269557.771180136
611,17377676.82162769
2,3, 1, 3, 0,24, 0.00,60.00,Wednesday
12,4520290.640796392
611,19162278.952665487
2,4, 1, 4, 0, 1, 0.00,60.00,Thursday
12,2691320.668660775
611,20801610.998083876
2,4, 1, 4, 0, 2, 0.00,60.00,Thursday
12,3705246.360377888
611,23437074.307914515
2,4, 1, 4, 0, 3, 0.00,60.00,Thursday
12,2473110.603681394
611,24433796.615105187
2,4, 1, 4, 0, 4, 0.00,60.00,Thursday
12,2414391.6176043606
611,24469718.935222556
2,4, 1, 4, 0, 5, 0.00,60.00,Thursday
12,2354526.4967068128
611,24817478.035814339
2,4, 1, 4, 0, 6, 0.00,60.00,Thursday
12,3767289.1922983278
611,24629512.81288036
2,4, 1, 4, 0, 7, 0.00,60.00,Thursday
12,3324087.86902524
611,23598304.930755807
2,4, 1, 4, 0, 8, 0.00,60.00,Thursday
12,4712416.11126189
611,20781089.081627709
2,4, 1, 4, 0, 9, 0.00,60.00,Thursday
12,14902047.534673386
611,18862312.96808581
2,4, 1, 4, 0,10, 0.00,60.00,Thursday
12,4875058.144762603
611,15006035.845760536
2,4, 1, 4, 0,11, 0.00,60.00,Thursday
12,4451167.9360908479
611,12999839.10093279
2,4, 1, 4, 0,12, 0.00,60.00,Thursday
12,8447863.105218262
611,12422312.827605516
2,4, 1, 4, 0,13, 0.00,60.00,Thursday
12,3255086.429457407
611,10288138.791467937
2,4, 1, 4, 0,14, 0.00,60.00,Thursday
12,3243702.949618516
611,9213915.633631496
2,4, 1, 4, 0,15, 0.00,60.00,Thursday
12,4301126.433564689
611,7980209.457752234
2,4, 1, 4, 0,16, 0.00,60.00,Thursday
12,4027725.0471750695
611,8268423.8526439149
2,4, 1, 4, 0,17, 0.00,60.00,Thursday
12,4277271.368439935
611,8556594.426638442
2,4, 1, 4, 0,18, 0.00,60.00,Thursday
12,5015359.45454944
611,8205069.114165469
2,4, 1, 4, 0,19, 0.00,60.00,Thursday
12,5444729.157341505
611,8112974.426943995
2,4, 1, 4, 0,20, 0.00,60.00,Thursday
12,7992945.863092575
611,7626533.181052606
2,4, 1, 4, 0,21, 0.00,60.00,Thursday
12,6219196.010514394
611,7876753.7453188
2,4, 1, 4, 0,22, 0.00,60.00,Thursday
12,4691297.716361658
611,8108421.002767832
2,4, 1, 4, 0,23, 0.00,60.00,Thursday
12,5317983.36710311
611,8738025.76229257
2,4, 1, 4, 0,24, 0.00,60.00,Thursday
12,2910613.7531386495
611,7236374.404664637
2,5, 1, 5, 0, 1, 0.00,60.00,Friday
12,2451540.1687369227
611,9528702.004341549
2,5, 1, 5, 0, 2, 0.00,60.00,Friday
12,2010354.1378370119
611,7587369.688713403
2,5, 1, 5, 0, 3, 0.00,60.00,Friday
12,2244064.092587419
611,7347693.050983602
2,5, 1, 5, 0, 4, 0.00,60.00,Friday
12,2883257.1488948955
611,7947948.938292784
2,5, 1, 5, 0, 5, 0.00,60.00,Friday
12,1996411.951130203
611,7981277.081597685
2,5, 1, 5, 0, 6, 0.00,60.00,Friday
12,6166232.018383078
611,7658861.393464618
2,5, 1, 5, 0, 7, 0.00,60.00,Friday
12,13361072.007519095
611,9815916.253764384
2,5, 1, 5, 0, 8, 0.00,60.00,Friday
12,3438284.934482717
611,5815604.978212051
2,5, 1, 5, 0, 9, 0.00,60.00,Friday
12,3169563.9884010145
611,2446821.5565318206
2,5, 1, 5, 0,10, 0.00,60.00,Friday
12,2780418.3054415865
611,0.0
2,5, 1, 5, 0,11, 0.00,60.00,Friday
12,19681721.772745648
611,0.0
2,5, 1, 5, 0,12, 0.00,60.00,Friday
12,14678286.954240419
611,0.0
2,5, 1, 5, 0,13, 0.00,60.00,Friday
12,4159314.6547252514
611,0.0
2,5, 1, 5, 0,14, 0.00,60.00,Friday
12,4051059.678357818
611,0.0
2,5, 1, 5, 0,15, 0.00,60.00,Friday
12,2937779.9108702077
611,0.0
2,5, 1, 5, 0,16, 0.00,60.00,Friday
12,3183476.3071823019
611,0.0
2,5, 1, 5, 0,17, 0.00,60.00,Friday
12,3778763.8671756165
611,0.0
2,5, 1, 5, 0,18, 0.00,60.00,Friday
12,7403769.818894802
611,0.0
2,5, 1, 5, 0,19, 0.00,60.00,Friday
12,5272162.070616869
611,0.0
2,5, 1, 5, 0,20, 0.00,60.00,Friday
12,8069174.022857826
611,0.0
2,5, 1, 5, 0,21, 0.00,60.00,Friday
12,6310208.485534912
611,1395173.2242557919
2,5, 1, 5, 0,22, 0.00,60.00,Friday
12,7772082.842997426
611,3555188.249371403
2,5, 1, 5, 0,23, 0.00,60.00,Friday
12,3996264.216375904
611,4529203.435081187
2,5, 1, 5, 0,24, 0.00,60.00,Friday
12,3068210.667792427
611,6183128.02988767
2,6, 1, 6, 0, 1, 0.00,60.00,Saturday
12,2406732.222155015
611,7422125.76409381
2,6, 1, 6, 0, 2, 0.00,60.00,Saturday
12,4911752.865463758
611,8240286.312176151
2,6, 1, 6, 0, 3, 0.00,60.00,Saturday
12,2149959.435278042
611,9241344.711012269
2,6, 1, 6, 0, 4, 0.00,60.00,Saturday
12,3250854.428482413
611,10440761.722939978
2,6, 1, 6, 0, 5, 0.00,60.00,Saturday
12,2071286.3207786293
611,11501379.655737704
2,6, 1, 6, 0, 6, 0.00,60.00,Saturday
12,17824167.79008639
611,12902759.229857542
2,6, 1, 6, 0, 7, 0.00,60.00,Saturday
12,5606471.641648166
611,12492321.280314595
2,6, 1, 6, 0, 8, 0.00,60.00,Saturday
12,3604831.165138569
611,12205027.593081462
2,6, 1, 6, 0, 9, 0.00,60.00,Saturday
12,3310680.544519011
611,9081197.976356203
2,6, 1, 6, 0,10, 0.00,60.00,Saturday
12,5737167.114163009
611,6802333.559534459
2,6, 1, 6, 0,11, 0.00,60.00,Saturday
12,3129667.381376028
611,4341474.972311743
2,6, 1, 6, 0,12, 0.00,60.00,Saturday
12,5335934.418170629
611,1946980.1107915983
2,6, 1, 6, 0,13, 0.00,60.00,Saturday
12,10643777.273434289
611,560124.0378235884
2,6, 1, 6, 0,14, 0.00,60.00,Saturday
12,5644672.6400844999
611,827552.720536579
2,6, 1, 6, 0,15, 0.00,60.00,Saturday
12,3117779.9108702077
611,0.0
2,6, 1, 6, 0,16, 0.00,60.00,Saturday
12,4380249.04900805
611,0.0
2,6, 1, 6, 0,17, 0.00,60.00,Saturday
12,3854950.1056703457
611,3581778.0570120296
2,6, 1, 6, 0,18, 0.00,60.00,Saturday
12,7575426.197820257
611,6520295.188324389
2,6, 1, 6, 0,19, 0.00,60.00,Saturday
12,10455351.733893484
611,8039707.911459451
2,6, 1, 6, 0,20, 0.00,60.00,Saturday
12,6578505.228591717
611,9625377.868450014
2,6, 1, 6, 0,21, 0.00,60.00,Saturday
12,9272901.316561513
611,10984232.264776454
2,6, 1, 6, 0,22, 0.00,60.00,Saturday
12,23915261.978715354
611,13305392.620768102
2,6, 1, 6, 0,23, 0.00,60.00,Saturday
12,6712380.276279544
611,14486341.99335948
2,6, 1, 6, 0,24, 0.00,60.00,Saturday
12,4426070.244975089
611,16397109.591918398
2,7, 1, 7, 0, 1, 0.00,60.00,Sunday
12,2625113.1163400856
611,17688965.423291137
2,7, 1, 7, 0, 2, 0.00,60.00,Sunday
12,2414023.2862368805
611,18102828.4329411
2,7, 1, 7, 0, 3, 0.00,60.00,Sunday
12,2383413.0030281257
611,20216802.783486457
2,7, 1, 7, 0, 4, 0.00,60.00,Sunday
12,5210143.638853788
611,21835235.170140234
2,7, 1, 7, 0, 5, 0.00,60.00,Sunday
12,15477009.684356843
611,23999419.79677491
2,7, 1, 7, 0, 6, 0.00,60.00,Sunday
12,2838546.256370369
611,23383173.787425884
2,7, 1, 7, 0, 7, 0.00,60.00,Sunday
12,8562722.57651772
611,23675089.007464179
2,7, 1, 7, 0, 8, 0.00,60.00,Sunday
12,4901652.560627229
611,17976606.896719204
2,7, 1, 7, 0, 9, 0.00,60.00,Sunday
12,3476532.622211385
611,16878476.64932152
2,7, 1, 7, 0,10, 0.00,60.00,Sunday
12,7501278.513754874
611,15905843.102304968
2,7, 1, 7, 0,11, 0.00,60.00,Sunday
12,3589837.3831080945
611,14270228.338091365
2,7, 1, 7, 0,12, 0.00,60.00,Sunday
12,3381637.086776739
611,12652692.16334827
2,7, 1, 7, 0,13, 0.00,60.00,Sunday
12,4695595.072834914
611,11831627.610518573
2,7, 1, 7, 0,14, 0.00,60.00,Sunday
12,3308475.9728159455
611,11638303.131355962
2,7, 1, 7, 0,15, 0.00,60.00,Sunday
12,3359661.405673304
611,11371684.01538736
2,7, 1, 7, 0,16, 0.00,60.00,Sunday
12,3428464.346724761
611,11517733.406989053
2,7, 1, 7, 0,17, 0.00,60.00,Sunday
12,10490975.059191416
611,11381786.171608625
2,7, 1, 7, 0,18, 0.00,60.00,Sunday
12,8252465.787561379
611,10205399.420003014
2,7, 1, 7, 0,19, 0.00,60.00,Sunday
12,5473481.592764929
611,9464725.666013219
2,7, 1, 7, 0,20, 0.00,60.00,Sunday
12,5342734.894674101
611,9485379.753986974
2,7, 1, 7, 0,21, 0.00,60.00,Sunday
12,5138987.053720513
611,10443469.833766535
2,7, 1, 7, 0,22, 0.00,60.00,Sunday
12,5995229.370952614
611,11902212.065433499
2,7, 1, 7, 0,23, 0.00,60.00,Sunday
12,5294596.443024351
611,12065335.228340835
2,7, 1, 7, 0,24, 0.00,60.00,Sunday
12,3185320.1036000188
611,11688846.854340608
2,8, 1, 8, 0, 1, 0.00,60.00,Monday
12,2507048.5903291369
611,12138344.511526375
2,8, 1, 8, 0, 2, 0.00,60.00,Monday
12,3434904.662876603
611,12744078.059816357
2,8, 1, 8, 0, 3, 0.00,60.00,Monday
12,2247916.5898449865
611,13846648.683060846
2,8, 1, 8, 0, 4, 0.00,60.00,Monday
12,2216390.1870807448
611,15160988.210112084
2,8, 1, 8, 0, 5, 0.00,60.00,Monday
12,2170067.0955096
611,16145404.854731057
2,8, 1, 8, 0, 6, 0.00,60.00,Monday
12,2449533.1808456776
611,16028743.98491575
2,8, 1, 8, 0, 7, 0.00,60.00,Monday
12,3173752.3255129137
611,16530512.090731519
2,8, 1, 8, 0, 8, 0.00,60.00,Monday
12,4816233.8103137989
611,14603583.747435473
2,8, 1, 8, 0, 9, 0.00,60.00,Monday
12,9712879.103885817
611,8289210.231435793
2,8, 1, 8, 0,10, 0.00,60.00,Monday
12,3049172.250462331
611,4172629.3229524416
2,8, 1, 8, 0,11, 0.00,60.00,Monday
12,3082543.2008340496
611,2126004.5782508885
2,8, 1, 8, 0,12, 0.00,60.00,Monday
12,4273875.140301602
611,576407.2963064555
2,8, 1, 8, 0,13, 0.00,60.00,Monday
12,4087740.3976049546
611,0.0
2,8, 1, 8, 0,14, 0.00,60.00,Monday
12,2867718.2842482228
611,0.0
2,8, 1, 8, 0,15, 0.00,60.00,Monday
12,4307598.6595660089
611,0.0
2,8, 1, 8, 0,16, 0.00,60.00,Monday
12,4697831.166454782
611,0.0
2,8, 1, 8, 0,17, 0.00,60.00,Monday
12,3778763.8671756165
611,0.0
2,8, 1, 8, 0,18, 0.00,60.00,Monday
12,6136489.403025844
611,1483700.518624538
2,8, 1, 8, 0,19, 0.00,60.00,Monday
12,15097653.463004938
611,4476312.451732462
2,8, 1, 8, 0,20, 0.00,60.00,Monday
12,5262948.193561805
611,5549435.604493954
2,8, 1, 8, 0,21, 0.00,60.00,Monday
12,5050616.544712845
611,6288867.161362028
2,8, 1, 8, 0,22, 0.00,60.00,Monday
12,5874406.849261797
611,7893272.281436121
2,8, 1, 8, 0,23, 0.00,60.00,Monday
12,4087558.9086011296
611,8821282.054458127
2,8, 1, 8, 0,24, 0.00,60.00,Monday
12,3166906.2894969696
611,10823149.891171022
2,9, 1, 9, 0, 1, 0.00,60.00,Tuesday
12,2514659.2915071116
611,12496149.845092373
2,9, 1, 9, 0, 2, 0.00,60.00,Tuesday
12,2314793.8569503796
611,13437710.43459283
2,9, 1, 9, 0, 3, 0.00,60.00,Tuesday
12,2256128.9814009226
611,14232741.558254803
2,9, 1, 9, 0, 4, 0.00,60.00,Tuesday
12,2210769.868959535
611,14896757.654598188
2,9, 1, 9, 0, 5, 0.00,60.00,Tuesday
12,3295426.858934586
611,15700486.625349913
2,9, 1, 9, 0, 6, 0.00,60.00,Tuesday
12,2444902.9979068019
611,15811063.102146293
2,9, 1, 9, 0, 7, 0.00,60.00,Tuesday
12,3169702.513535345
611,16340116.45022115
2,9, 1, 9, 0, 8, 0.00,60.00,Tuesday
12,4832762.53567484
611,13639894.572899638
2,9, 1, 9, 0, 9, 0.00,60.00,Tuesday
12,3307759.8246841656
611,8943884.85496023
2,9, 1, 9, 0,10, 0.00,60.00,Tuesday
12,4359317.2973835789
611,5427133.231837581
2,9, 1, 9, 0,11, 0.00,60.00,Tuesday
12,4333199.787531715
611,3080070.2678768865
2,9, 1, 9, 0,12, 0.00,60.00,Tuesday
12,4285833.474255527
611,1808478.139835483
2,9, 1, 9, 0,13, 0.00,60.00,Tuesday
12,3052840.6962758756
611,779868.7476064359
2,9, 1, 9, 0,14, 0.00,60.00,Tuesday
12,3047718.2842482228
611,0.0
2,9, 1, 9, 0,15, 0.00,60.00,Tuesday
12,3117779.9108702077
611,0.0
2,9, 1, 9, 0,16, 0.00,60.00,Tuesday
12,4374517.95168771
611,0.0
2,9, 1, 9, 0,17, 0.00,60.00,Tuesday
12,3802909.3489533008
611,1135162.445554738
2,9, 1, 9, 0,18, 0.00,60.00,Tuesday
12,6118009.38559448
611,4800374.7345161
2,9, 1, 9, 0,19, 0.00,60.00,Tuesday
12,5394252.336709534
611,5739884.849357929
2,9, 1, 9, 0,20, 0.00,60.00,Tuesday
12,5277192.496355166
611,6404005.364845226
2,9, 1, 9, 0,21, 0.00,60.00,Tuesday
12,5098277.6799019
611,8529581.646882274
2,9, 1, 9, 0,22, 0.00,60.00,Tuesday
12,4722844.15498636
611,9591527.976879083
2,9, 1, 9, 0,23, 0.00,60.00,Tuesday
12,4138275.7802924497
611,11205657.260970433
2,9, 1, 9, 0,24, 0.00,60.00,Tuesday
12,9083444.177232109
611,13579520.836410514
2,10, 1,10, 0, 1, 0.00,60.00,Wednesday
12,3127377.560364792
611,14474853.857626684
2,10, 1,10, 0, 2, 0.00,60.00,Wednesday
12,2360326.3596240745
611,15578350.557792563
2,10, 1,10, 0, 3, 0.00,60.00,Wednesday
12,2297248.2885599678
611,16165902.126511438
2,10, 1,10, 0, 4, 0.00,60.00,Wednesday
12,2259796.5776701855
611,17201672.46515781
2,10, 1,10, 0, 5, 0.00,60.00,Wednesday
12,2208778.4825668188
611,17965360.787161519
2,10, 1,10, 0, 6, 0.00,60.00,Wednesday
12,3638110.609560882
611,18557507.044091554
2,10, 1,10, 0, 7, 0.00,60.00,Wednesday
12,3201743.4652237689
611,17846472.19045525
2,10, 1,10, 0, 8, 0.00,60.00,Wednesday
12,3682617.6006441104
611,15862036.435251868
2,10, 1,10, 0, 9, 0.00,60.00,Wednesday
12,3333692.934582534
611,10163089.86913722
2,10, 1,10, 0,10, 0.00,60.00,Wednesday
12,16568944.068196435
611,6509035.564584378
2,10, 1,10, 0,11, 0.00,60.00,Wednesday
12,12617648.064801438
611,3605635.478663034
2,10, 1,10, 0,12, 0.00,60.00,Wednesday
12,3924496.1618187476
611,658102.069685324
2,10, 1,10, 0,13, 0.00,60.00,Wednesday
12,3036252.4919108918
611,0.0
2,10, 1,10, 0,14, 0.00,60.00,Wednesday
12,3047718.2842482228
611,0.0
2,10, 1,10, 0,15, 0.00,60.00,Wednesday
12,4253715.107941573
611,0.0
2,10, 1,10, 0,16, 0.00,60.00,Wednesday
12,3183476.3071823019
611,0.0
2,10, 1,10, 0,17, 0.00,60.00,Wednesday
12,3778763.8671756165
611,0.0
2,10, 1,10, 0,18, 0.00,60.00,Wednesday
12,4898518.996006621
611,2711995.839405409
2,10, 1,10, 0,19, 0.00,60.00,Wednesday
12,6604749.456251521
611,5171776.200888946
2,10, 1,10, 0,20, 0.00,60.00,Wednesday
12,15745835.32004559
611,5932089.101928633
2,10, 1,10, 0,21, 0.00,60.00,Wednesday
12,5426693.797360204
611,7011976.096593814
2,10, 1,10, 0,22, 0.00,60.00,Wednesday
12,4717769.149091307
611,9352934.431466507
2,10, 1,10, 0,23, 0.00,60.00,Wednesday
12,4139146.8338124577
611,11246608.493713906
2,10, 1,10, 0,24, 0.00,60.00,Wednesday
12,4395983.101033334
611,13292173.501553663
2,11, 1,11, 0, 1, 0.00,60.00,Thursday
12,2561777.9367710968
611,14711360.006627664
2,11, 1,11, 0, 2, 0.00,60.00,Thursday
12,3548178.332457564
611,16026575.628690023
2,11, 1,11, 0, 3, 0.00,60.00,Thursday
12,2307044.6539634719
611,16626463.079959352
2,11, 1,11, 0, 4, 0.00,60.00,Thursday
12,2258826.801613674
611,17156079.945195456
2,11, 1,11, 0, 5, 0.00,60.00,Thursday
12,2199703.9100836345
611,17538733.81043681
2,11, 1,11, 0, 6, 0.00,60.00,Thursday
12,3608224.8124155628
611,17150419.376801347
2,11, 1,11, 0, 7, 0.00,60.00,Thursday
12,3183980.264035898
611,17011362.78626267
2,11, 1,11, 0, 8, 0.00,60.00,Thursday
12,4884216.092649447
611,15934313.621726912
2,11, 1,11, 0, 9, 0.00,60.00,Thursday
12,14879803.55546289
611,13582683.931938509
2,11, 1,11, 0,10, 0.00,60.00,Thursday
12,4551057.668549544
611,8103378.580761415
2,11, 1,11, 0,11, 0.00,60.00,Thursday
12,4230093.456413012
611,4154314.304507488
2,11, 1,11, 0,12, 0.00,60.00,Thursday
12,8252608.478312343
611,1746383.5433491804
2,11, 1,11, 0,13, 0.00,60.00,Thursday
12,2856252.4919108918
611,0.0
2,11, 1,11, 0,14, 0.00,60.00,Thursday
12,2867718.2842482228
611,0.0
2,11, 1,11, 0,15, 0.00,60.00,Thursday
12,4132052.4747716637
611,0.0
2,11, 1,11, 0,16, 0.00,60.00,Thursday
12,4185642.6363869567
611,221246.7802719914
2,11, 1,11, 0,17, 0.00,60.00,Thursday
12,3824157.498184986
611,2134111.286892175
2,11, 1,11, 0,18, 0.00,60.00,Thursday
12,4896563.581533178
611,2620065.0551624337
2,11, 1,11, 0,19, 0.00,60.00,Thursday
12,6474172.877185735
611,2935344.2515060098
2,11, 1,11, 0,20, 0.00,60.00,Thursday
12,7927866.144082753
611,4342281.739003859
2,11, 1,11, 0,21, 0.00,60.00,Thursday
12,5029163.620073492
611,5280291.121250989
2,11, 1,11, 0,22, 0.00,60.00,Thursday
12,4627619.143527915
611,5114671.483377658
2,11, 1,11, 0,23, 0.00,60.00,Thursday
12,5272359.73386977
611,6522292.189507704
2,11, 1,11, 0,24, 0.00,60.00,Thursday
12,3097411.6703458877
611,7555967.958137619
2,12, 1,12, 0, 1, 0.00,60.00,Friday
12,2437443.085632121
611,8865949.466215566
2,12, 1,12, 0, 2, 0.00,60.00,Friday
12,3392185.9551964236
611,10739533.928115279
2,12, 1,12, 0, 3, 0.00,60.00,Friday
12,2204841.777707395
611,11821553.075603957
2,12, 1,12, 0, 4, 0.00,60.00,Friday
12,2181759.6423810438
611,13532886.763466383
2,12, 1,12, 0, 5, 0.00,60.00,Friday
12,2144358.4789199645
611,14936754.045920454
2,12, 1,12, 0, 6, 0.00,60.00,Friday
12,6975250.708229721
611,15456863.37853359
2,12, 1,12, 0, 7, 0.00,60.00,Friday
12,12858823.339992267
611,16558097.213683784
2,12, 1,12, 0, 8, 0.00,60.00,Friday
12,3672138.647948111
611,15369384.696977724
2,12, 1,12, 0, 9, 0.00,60.00,Friday
12,3411806.3118839256
611,13835469.3736928
2,12, 1,12, 0,10, 0.00,60.00,Friday
12,3224941.6683992876
611,12436156.39423478
2,12, 1,12, 0,11, 0.00,60.00,Friday
12,20290950.493448788
611,11588139.11578475
2,12, 1,12, 0,12, 0.00,60.00,Friday
12,15276749.846434409
611,9307969.274291862
2,12, 1,12, 0,13, 0.00,60.00,Friday
12,4530228.804036719
611,8834202.766275907
2,12, 1,12, 0,14, 0.00,60.00,Friday
12,4404988.8310544029
611,8123753.797703299
2,12, 1,12, 0,15, 0.00,60.00,Friday
12,3288025.2801939926
611,8003822.477651641
2,12, 1,12, 0,16, 0.00,60.00,Friday
12,3352975.6441986199
611,7968748.923667324
2,12, 1,12, 0,17, 0.00,60.00,Friday
12,5115523.812343888
611,9495661.109666745
2,12, 1,12, 0,18, 0.00,60.00,Friday
12,6338397.170911119
611,10085033.912468026
2,12, 1,12, 0,19, 0.00,60.00,Friday
12,6642915.195799411
611,9453616.13487082
2,12, 1,12, 0,20, 0.00,60.00,Friday
12,7003004.774279156
611,9354378.93849367
2,12, 1,12, 0,21, 0.00,60.00,Friday
12,6516375.772173233
611,11026198.693814196
2,12, 1,12, 0,22, 0.00,60.00,Friday
12,7951927.796753727
611,11812177.171319409
2,12, 1,12, 0,23, 0.00,60.00,Friday
12,4163335.7270568648
611,12383811.862170227
2,12, 1,12, 0,24, 0.00,60.00,Friday
12,4348868.907121597
611,13038148.051699713
2,13, 1,13, 0, 1, 0.00,60.00,Saturday
12,2518068.055764344
611,12656407.619453127
2,13, 1,13, 0, 2, 0.00,60.00,Saturday
12,4994975.984721348
611,11892488.335305879
2,13, 1,13, 0, 3, 0.00,60.00,Saturday
12,2214742.5042127848
611,12287020.40469296
2,13, 1,13, 0, 4, 0.00,60.00,Saturday
12,2158603.5116684136
611,12444237.126596082
2,13, 1,13, 0, 5, 0.00,60.00,Saturday
12,2091043.1662045478
611,12430217.157371663
2,13, 1,13, 0, 6, 0.00,60.00,Saturday
12,18219716.220895448
611,13740740.372491336
2,13, 1,13, 0, 7, 0.00,60.00,Saturday
12,5874664.766104072
611,12934348.85464823
2,13, 1,13, 0, 8, 0.00,60.00,Saturday
12,3559794.553653112
611,10087701.0263952
2,13, 1,13, 0, 9, 0.00,60.00,Saturday
12,3218661.0969244434
611,4755046.105301508
2,13, 1,13, 0,10, 0.00,60.00,Saturday
12,5610437.470618105
611,603950.3042993728
2,13, 1,13, 0,11, 0.00,60.00,Saturday
12,3037322.0036349615
611,0.0
2,13, 1,13, 0,12, 0.00,60.00,Saturday
12,5295644.230253489
611,0.0
2,13, 1,13, 0,13, 0.00,60.00,Saturday
12,10644901.09351613
611,0.0
2,13, 1,13, 0,14, 0.00,60.00,Saturday
12,5492622.375216802
611,0.0
2,13, 1,13, 0,15, 0.00,60.00,Saturday
12,3117779.9108702077
611,0.0
2,13, 1,13, 0,16, 0.00,60.00,Saturday
12,4380559.12034765
611,0.0
2,13, 1,13, 0,17, 0.00,60.00,Saturday
12,3778763.8671756165
611,0.0
2,13, 1,13, 0,18, 0.00,60.00,Saturday
12,7440016.102518547
611,0.0
2,13, 1,13, 0,19, 0.00,60.00,Saturday
12,10311310.87336072
611,0.0
2,13, 1,13, 0,20, 0.00,60.00,Saturday
12,6374945.67866841
611,0.0
2,13, 1,13, 0,21, 0.00,60.00,Saturday
12,9043313.417935765
611,0.0
2,13, 1,13, 0,22, 0.00,60.00,Saturday
12,23769931.393015826
611,2131708.1978594164
2,13, 1,13, 0,23, 0.00,60.00,Saturday
12,6685409.368790445
611,4331720.12861626
2,13, 1,13, 0,24, 0.00,60.00,Saturday
12,4185342.752683975
611,5076259.827303212
2,14, 1,14, 0, 1, 0.00,60.00,Sunday
12,2356079.685710542
611,5040775.179613023
2,14, 1,14, 0, 2, 0.00,60.00,Sunday
12,2143481.361749121
611,5383718.685855981
2,14, 1,14, 0, 3, 0.00,60.00,Sunday
12,2080702.4872496227
611,5985336.517866227
2,14, 1,14, 0, 4, 0.00,60.00,Sunday
12,4902691.3987698
611,6974221.953048163
2,14, 1,14, 0, 5, 0.00,60.00,Sunday
12,15214003.349489294
611,8210287.487380273
2,14, 1,14, 0, 6, 0.00,60.00,Sunday
12,2605586.9779420427
611,7867134.636391336
2,14, 1,14, 0, 7, 0.00,60.00,Sunday
12,8265478.293161873
611,8150273.415305576
2,14, 1,14, 0, 8, 0.00,60.00,Sunday
12,4677578.085646776
611,7420022.650939348
2,14, 1,14, 0, 9, 0.00,60.00,Sunday
12,3214872.0988340817
611,4576912.225925702
2,14, 1,14, 0,10, 0.00,60.00,Sunday
12,7305743.230419148
611,2360123.7050860158
2,14, 1,14, 0,11, 0.00,60.00,Sunday
12,2915655.48662421
611,0.0
2,14, 1,14, 0,12, 0.00,60.00,Sunday
12,2932507.89802924
611,0.0
2,14, 1,14, 0,13, 0.00,60.00,Sunday
12,4264786.096133543
611,0.0
2,14, 1,14, 0,14, 0.00,60.00,Sunday
12,2880923.353997593
611,0.0
2,14, 1,14, 0,15, 0.00,60.00,Sunday
12,2937779.9108702077
611,0.0
2,14, 1,14, 0,16, 0.00,60.00,Sunday
12,3003476.3071823019
611,0.0
2,14, 1,14, 0,17, 0.00,60.00,Sunday
12,10178189.361467084
611,0.0
2,14, 1,14, 0,18, 0.00,60.00,Sunday
12,7986363.257201695
611,0.0
2,14, 1,14, 0,19, 0.00,60.00,Sunday
12,5285327.802474264
611,618966.5010772861
2,14, 1,14, 0,20, 0.00,60.00,Sunday
12,5180466.080534499
611,1856562.669615498
2,14, 1,14, 0,21, 0.00,60.00,Sunday
12,4997208.265203497
611,3777959.58292075
2,14, 1,14, 0,22, 0.00,60.00,Sunday
12,5853991.841593999
611,5206972.894221629
2,14, 1,14, 0,23, 0.00,60.00,Sunday
12,5173213.856944507
611,6355252.995125771
2,14, 1,14, 0,24, 0.00,60.00,Sunday
12,3114346.435361601
611,8352129.718218918
2,15, 1,15, 0, 1, 0.00,60.00,Monday
12,3584566.3052290484
611,9444599.640276839
2,15, 1,15, 0, 2, 0.00,60.00,Monday
12,2258063.730750313
611,10770631.376621234
2,15, 1,15, 0, 3, 0.00,60.00,Monday
12,2199563.263721342
611,11573391.912348919
2,15, 1,15, 0, 4, 0.00,60.00,Monday
12,2161304.6016472319
611,12571224.690325393
2,15, 1,15, 0, 5, 0.00,60.00,Monday
12,2104347.52491475
611,13055700.985321993
2,15, 1,15, 0, 6, 0.00,60.00,Monday
12,2387233.0461662218
611,13099799.601354845
2,15, 1,15, 0, 7, 0.00,60.00,Monday
12,3122363.4948444238
611,14114545.773184045
2,15, 1,15, 0, 8, 0.00,60.00,Monday
12,4764619.96156974
611,12161288.699122709
2,15, 1,15, 0, 9, 0.00,60.00,Monday
12,9674504.931270402
611,5525611.799469189
2,15, 1,15, 0,10, 0.00,60.00,Monday
12,2977977.987717536
611,825541.2776212918
2,15, 1,15, 0,11, 0.00,60.00,Monday
12,2857322.0036349615
611,0.0
2,15, 1,15, 0,12, 0.00,60.00,Monday
12,4081728.553113927
611,0.0
2,15, 1,15, 0,13, 0.00,60.00,Monday
12,4088658.0361886986
611,0.0
2,15, 1,15, 0,14, 0.00,60.00,Monday
12,2867718.2842482228
611,0.0
2,15, 1,15, 0,15, 0.00,60.00,Monday
12,4128022.9808615699
611,0.0
2,15, 1,15, 0,16, 0.00,60.00,Monday
12,4518752.739091998
611,0.0
2,15, 1,15, 0,17, 0.00,60.00,Monday
12,3778763.8671756165
611,0.0
2,15, 1,15, 0,18, 0.00,60.00,Monday
12,6283734.814161019
611,0.0
2,15, 1,15, 0,19, 0.00,60.00,Monday
12,14779713.167217246
611,0.0
2,15, 1,15, 0,20, 0.00,60.00,Monday
12,5140976.049584415
611,0.0
2,15, 1,15, 0,21, 0.00,60.00,Monday
12,4916849.146010065
611,0.0
2,15, 1,15, 0,22, 0.00,60.00,Monday
12,5758068.391760166
611,2389297.8019627679
2,15, 1,15, 0,23, 0.00,60.00,Monday
12,4001394.5483945368
611,4770398.0525421299
2,15, 1,15, 0,24, 0.00,60.00,Monday
12,3066007.3268416428
611,6079541.366133679
2,16, 1,16, 0, 1, 0.00,60.00,Tuesday
12,2375515.1722281409
611,5954504.489676083
2,16, 1,16, 0, 2, 0.00,60.00,Tuesday
12,2176476.353311825
611,6934927.133806411
2,16, 1,16, 0, 3, 0.00,60.00,Tuesday
12,3224361.648126186
611,6400951.931540564
2,16, 1,16, 0, 4, 0.00,60.00,Tuesday
12,2101875.0787221679
611,9777237.674331503
2,16, 1,16, 0, 5, 0.00,60.00,Tuesday
12,2071649.8906914902
611,11518472.332339202
2,16, 1,16, 0, 6, 0.00,60.00,Tuesday
12,2364596.736813694
611,12035588.560981315
2,16, 1,16, 0, 7, 0.00,60.00,Tuesday
12,3082543.7086759118
611,12242480.172476449
2,16, 1,16, 0, 8, 0.00,60.00,Tuesday
12,4790775.140037651
611,11624008.266045699
2,16, 1,16, 0, 9, 0.00,60.00,Tuesday
12,3342930.7030027757
611,10597389.250194984
2,16, 1,16, 0,10, 0.00,60.00,Tuesday
12,5431278.625776022
611,9776251.27511084
2,16, 1,16, 0,11, 0.00,60.00,Tuesday
12,4740918.84597979
611,8349937.556381264
2,16, 1,16, 0,12, 0.00,60.00,Tuesday
12,3247640.5942357678
611,6353054.509849577
2,16, 1,16, 0,13, 0.00,60.00,Tuesday
12,3136463.0132939207
611,4711242.524413381
2,16, 1,16, 0,14, 0.00,60.00,Tuesday
12,3128506.7976480897
611,3798146.8867804214
2,16, 1,16, 0,15, 0.00,60.00,Tuesday
12,4311846.601960959
611,2786882.176214978