Program Version,EnergyPlus, Version 9.2.0-921312fa1d, YMD=2019.10.24 09:57
1,5,Environment Title[],Latitude[deg],Longitude[deg],Time Zone[],Elevation[m]
2,8,Day of Simulation[],Month[],Day of Month[],DST Indicator[1=yes 0=no],Hour[],StartMinute[],EndMinute[],DayType
3,5,Cumulative Day of Simulation[],Month[],Day of Month[],DST Indicator[1=yes 0=no],DayType  ! When Daily Meters Requested
4,2,Cumulative Days of Simulation[],Month[]  ! When Monthly Meters Requested
5,1,Cumulative Days of Simulation[] ! When Run Period Meters Requested
6,1,Calendar Year of Simulation[] ! When Annual Meters Requested
12,1,Electricity:Facility [J] !Hourly
613,1,Gas:Facility [J] !Hourly
End of Data Dictionary
1,RUN PERIOD 1,  39.83,-104.65,  -7.00,1650.00
2,1, 1, 1, 0, 1, 0.00,60.00,Monday
12,2721792.477520887
613,22234195.917474044
2,1, 1, 1, 0, 2, 0.00,60.00,Monday
12,2503932.563588027
613,22329773.91680856
2,1, 1, 1, 0, 3, 0.00,60.00,Monday
12,2427793.7607308856
613,22303295.399922834
2,1, 1, 1, 0, 4, 0.00,60.00,Monday
12,2370127.8286677759
613,22388725.424245635
2,1, 1, 1, 0, 5, 0.00,60.00,Monday
12,2299393.256148973
613,22225474.084133503
2,1, 1, 1, 0, 6, 0.00,60.00,Monday
12,2564083.099742333
613,21414131.08425303
2,1, 1, 1, 0, 7, 0.00,60.00,Monday
12,3261517.2318139325
613,20656643.289431573
2,1, 1, 1, 0, 8, 0.00,60.00,Monday
12,4920283.2338870619
613,19505549.31891644
2,1, 1, 1, 0, 9, 0.00,60.00,Monday
12,9887958.679413692
613,17283254.32541871
2,1, 1, 1, 0,10, 0.00,60.00,Monday
12,3205480.428376438
613,11521216.322992016
2,1, 1, 1, 0,11, 0.00,60.00,Monday
12,3208651.871204035
613,8054808.483715086
2,1, 1, 1, 0,12, 0.00,60.00,Monday
12,4377624.081864921
613,5458549.483001803
2,1, 1, 1, 0,13, 0.00,60.00,Monday
12,4366423.649473032
613,4684985.620523474
2,1, 1, 1, 0,14, 0.00,60.00,Monday
12,3137230.118813378
613,4208260.326575178
2,1, 1, 1, 0,15, 0.00,60.00,Monday
12,4379901.702445608
613,3412504.4330409707
2,1, 1, 1, 0,16, 0.00,60.00,Monday
12,4773927.740179799
613,3602106.118428313
2,1, 1, 1, 0,17, 0.00,60.00,Monday
12,3916511.451000666
613,6475989.403061572
2,1, 1, 1, 0,18, 0.00,60.00,Monday
12,6280367.479503597
613,8289250.737909163
2,1, 1, 1, 0,19, 0.00,60.00,Monday
12,15129135.495041047
613,10609225.956053915
2,1, 1, 1, 0,20, 0.00,60.00,Monday
12,5380591.934901666
613,11265169.892856945
2,1, 1, 1, 0,21, 0.00,60.00,Monday
12,5171573.762862438
613,11975483.51577622
2,1, 1, 1, 0,22, 0.00,60.00,Monday
12,5978837.920143843
613,12824785.79212129
2,1, 1, 1, 0,23, 0.00,60.00,Monday
12,4195481.465627981
613,13895093.995470915
2,1, 1, 1, 0,24, 0.00,60.00,Monday
12,3251602.222356591
613,14804998.054678183
2,2, 1, 2, 0, 1, 0.00,60.00,Tuesday
12,2585244.2676281055
613,15814593.223057332
2,2, 1, 2, 0, 2, 0.00,60.00,Tuesday
12,2384897.380784552
613,16733519.078641197
2,2, 1, 2, 0, 3, 0.00,60.00,Tuesday
12,2315137.819649362
613,17006950.73544964
2,2, 1, 2, 0, 4, 0.00,60.00,Tuesday
12,3419631.066421345
613,18378568.902558227
2,2, 1, 2, 0, 5, 0.00,60.00,Tuesday
12,2211169.0583958739
613,18077750.00885443
2,2, 1, 2, 0, 6, 0.00,60.00,Tuesday
12,2500079.8498530609
613,18405117.37573777
2,2, 1, 2, 0, 7, 0.00,60.00,Tuesday
12,3192100.4950040385
613,17393122.87409753
2,2, 1, 2, 0, 8, 0.00,60.00,Tuesday
12,4875198.8959653009
613,15664921.584162707
2,2, 1, 2, 0, 9, 0.00,60.00,Tuesday
12,3417754.822522032
613,14115129.392305566
2,2, 1, 2, 0,10, 0.00,60.00,Tuesday
12,4438177.552464261
613,9210713.919188794
2,2, 1, 2, 0,11, 0.00,60.00,Tuesday
12,4940103.64385086
613,4991405.638776782
2,2, 1, 2, 0,12, 0.00,60.00,Tuesday
12,3780026.437325323
613,2688347.316509133
2,2, 1, 2, 0,13, 0.00,60.00,Tuesday
12,3071860.4030422845
613,1674050.8163463153
2,2, 1, 2, 0,14, 0.00,60.00,Tuesday
12,3083415.569841582
613,1678252.6183128397
2,2, 1, 2, 0,15, 0.00,60.00,Tuesday
12,2938449.840648281
613,31495.711381114503
2,2, 1, 2, 0,16, 0.00,60.00,Tuesday
12,4390102.116018887
613,758711.0576151653
2,2, 1, 2, 0,17, 0.00,60.00,Tuesday
12,3829150.0172170808
613,2368826.840142761
2,2, 1, 2, 0,18, 0.00,60.00,Tuesday
12,6090605.921464106
613,3533884.6215223909
2,2, 1, 2, 0,19, 0.00,60.00,Tuesday
12,5384607.615998708
613,5286453.236371323
2,2, 1, 2, 0,20, 0.00,60.00,Tuesday
12,5276619.258700765
613,6377055.483967071
2,2, 1, 2, 0,21, 0.00,60.00,Tuesday
12,5083795.840503509
613,7848740.387264012
2,2, 1, 2, 0,22, 0.00,60.00,Tuesday
12,4692416.035187647
613,8160997.031074438
2,2, 1, 2, 0,23, 0.00,60.00,Tuesday
12,4073202.9098293518
613,8146356.997083049
2,2, 1, 2, 0,24, 0.00,60.00,Tuesday
12,8900108.57147819
613,9845102.3110526
2,3, 1, 3, 0, 1, 0.00,60.00,Wednesday
12,3102138.425180377
613,10939667.68858383
2,3, 1, 3, 0, 2, 0.00,60.00,Wednesday
12,2279568.883192334
613,11781662.826019496
2,3, 1, 3, 0, 3, 0.00,60.00,Wednesday
12,2222694.2217344266
613,12660858.093720559
2,3, 1, 3, 0, 4, 0.00,60.00,Wednesday
12,2183062.075162423
613,13594118.624354216
2,3, 1, 3, 0, 5, 0.00,60.00,Wednesday
12,2128439.4479660775
613,14188345.450272663
2,3, 1, 3, 0, 6, 0.00,60.00,Wednesday
12,3545243.3942441989
613,14191664.35206334
2,3, 1, 3, 0, 7, 0.00,60.00,Wednesday
12,3119215.068131519
613,13966527.365434826
2,3, 1, 3, 0, 8, 0.00,60.00,Wednesday
12,3631631.437881958
613,13465000.92594064
2,3, 1, 3, 0, 9, 0.00,60.00,Wednesday
12,3337184.5015379327
613,10327240.484163313
2,3, 1, 3, 0,10, 0.00,60.00,Wednesday
12,15815941.537823
613,8240045.87289084
2,3, 1, 3, 0,11, 0.00,60.00,Wednesday
12,13590464.085579675
613,5349082.449937499
2,3, 1, 3, 0,12, 0.00,60.00,Wednesday
12,3482200.900512865
613,1926596.5487666317
2,3, 1, 3, 0,13, 0.00,60.00,Wednesday
12,3062792.152055754
613,1247721.0350003143
2,3, 1, 3, 0,14, 0.00,60.00,Wednesday
12,3075198.278327551
613,1291929.3791748046
2,3, 1, 3, 0,15, 0.00,60.00,Wednesday
12,4283514.225672192
613,1396139.244412842
2,3, 1, 3, 0,16, 0.00,60.00,Wednesday
12,3270959.785927988
613,4112900.3178711289
2,3, 1, 3, 0,17, 0.00,60.00,Wednesday
12,3935479.6996620099
613,7367752.248655386
2,3, 1, 3, 0,18, 0.00,60.00,Wednesday
12,5032494.289950096
613,9010636.873660874
2,3, 1, 3, 0,19, 0.00,60.00,Wednesday
12,6694421.5388578069
613,9443154.794146546
2,3, 1, 3, 0,20, 0.00,60.00,Wednesday
12,15762697.59116052
613,10218807.324397786
2,3, 1, 3, 0,21, 0.00,60.00,Wednesday
12,5565537.857418017
613,12560174.653588316
2,3, 1, 3, 0,22, 0.00,60.00,Wednesday
12,4823159.25532116
613,14307687.118808711
2,3, 1, 3, 0,23, 0.00,60.00,Wednesday
12,4249679.325699144
613,16443122.481656546
2,3, 1, 3, 0,24, 0.00,60.00,Wednesday
12,4501935.682067062
613,18299348.98377579
2,4, 1, 4, 0, 1, 0.00,60.00,Thursday
12,2674824.0498169467
613,20026048.00196872
2,4, 1, 4, 0, 2, 0.00,60.00,Thursday
12,3690667.208638492
613,22751658.05923552
2,4, 1, 4, 0, 3, 0.00,60.00,Thursday
12,2460678.110223653
613,23849302.182242939
2,4, 1, 4, 0, 4, 0.00,60.00,Thursday
12,2403548.2527080427
613,23959934.921506045
2,4, 1, 4, 0, 5, 0.00,60.00,Thursday
12,2345267.674971788
613,24382188.865755209
2,4, 1, 4, 0, 6, 0.00,60.00,Thursday
12,3759552.5196839666
613,24265785.127252155
2,4, 1, 4, 0, 7, 0.00,60.00,Thursday
12,3317668.8801950148
613,23296526.108299577
2,4, 1, 4, 0, 8, 0.00,60.00,Thursday
12,4707083.40171355
613,20530379.99790776
2,4, 1, 4, 0, 9, 0.00,60.00,Thursday
12,14897796.487884615
613,18662456.58446328
2,4, 1, 4, 0,10, 0.00,60.00,Thursday
12,4871351.73352541
613,14831784.65943894
2,4, 1, 4, 0,11, 0.00,60.00,Thursday
12,4447395.089216977
613,12822464.545996169
2,4, 1, 4, 0,12, 0.00,60.00,Thursday
12,8443106.797705945
613,12198702.39327225
2,4, 1, 4, 0,13, 0.00,60.00,Thursday
12,3249311.1985366188
613,10016625.250506208
2,4, 1, 4, 0,14, 0.00,60.00,Thursday
12,3237201.7572697366
613,8908272.140011793
2,4, 1, 4, 0,15, 0.00,60.00,Thursday
12,4294344.050184246
613,7661346.203097692
2,4, 1, 4, 0,16, 0.00,60.00,Thursday
12,4021190.3732965856
613,7961206.276735475
2,4, 1, 4, 0,17, 0.00,60.00,Thursday
12,4270810.025111247
613,8252824.373007042
2,4, 1, 4, 0,18, 0.00,60.00,Thursday
12,5009051.972073902
613,7908532.59034912
2,4, 1, 4, 0,19, 0.00,60.00,Thursday
12,5438362.298322536
613,7813646.4068605289
2,4, 1, 4, 0,20, 0.00,60.00,Thursday
12,7986573.902883284
613,7326965.336403447
2,4, 1, 4, 0,21, 0.00,60.00,Thursday
12,6213106.3383863619
613,7590457.237792769
2,4, 1, 4, 0,22, 0.00,60.00,Thursday
12,4685643.848459169
613,7842613.156226413
2,4, 1, 4, 0,23, 0.00,60.00,Thursday
12,5312859.093416479
613,8497115.967932966
2,4, 1, 4, 0,24, 0.00,60.00,Thursday
12,2905943.420889957
613,7016805.964250297
2,5, 1, 5, 0, 1, 0.00,60.00,Friday
12,2447556.8073959837
613,9341430.437638428
2,5, 1, 5, 0, 2, 0.00,60.00,Friday
12,2006720.1551925948
613,7416523.620545387
2,5, 1, 5, 0, 3, 0.00,60.00,Friday
12,2240874.8428533587
613,7197755.41220827
2,5, 1, 5, 0, 4, 0.00,60.00,Friday
12,2880597.7060675278
613,7822919.350788867
2,5, 1, 5, 0, 5, 0.00,60.00,Friday
12,1994147.1676718028
613,7874801.793468805
2,5, 1, 5, 0, 6, 0.00,60.00,Friday
12,6164085.744435619
613,7557957.6465250649
2,5, 1, 5, 0, 7, 0.00,60.00,Friday
12,13359434.031039864
613,9738909.325387745
2,5, 1, 5, 0, 8, 0.00,60.00,Friday
12,3436376.424989159
613,5725879.358970289
2,5, 1, 5, 0, 9, 0.00,60.00,Friday
12,3167349.296700466
613,2342701.25485005
2,5, 1, 5, 0,10, 0.00,60.00,Friday
12,2780418.3054415865
613,0.0
2,5, 1, 5, 0,11, 0.00,60.00,Friday
12,19681721.681738035
613,0.0
2,5, 1, 5, 0,12, 0.00,60.00,Friday
12,14678302.946874058
613,0.0
2,5, 1, 5, 0,13, 0.00,60.00,Friday
12,4159325.675317486
613,0.0
2,5, 1, 5, 0,14, 0.00,60.00,Friday
12,4051073.2361253595
613,0.0
2,5, 1, 5, 0,15, 0.00,60.00,Friday
12,2937779.9108702077
613,0.0
2,5, 1, 5, 0,16, 0.00,60.00,Friday
12,3183476.3071823019
613,0.0
2,5, 1, 5, 0,17, 0.00,60.00,Friday
12,3778763.8671756165
613,0.0
2,5, 1, 5, 0,18, 0.00,60.00,Friday
12,7403691.764228856
613,0.0
2,5, 1, 5, 0,19, 0.00,60.00,Friday
12,5272162.070616869
613,0.0
2,5, 1, 5, 0,20, 0.00,60.00,Friday
12,8068972.436266237
613,0.0
2,5, 1, 5, 0,21, 0.00,60.00,Friday
12,6280414.232403627
613,0.0
2,5, 1, 5, 0,22, 0.00,60.00,Friday
12,7719603.0101429
613,1095400.1340358572
2,5, 1, 5, 0,23, 0.00,60.00,Friday
12,3959839.7620207376
613,2816764.1031800715
2,5, 1, 5, 0,24, 0.00,60.00,Friday
12,3032795.83461645
613,4518154.474706435
2,6, 1, 6, 0, 1, 0.00,60.00,Saturday
12,2371261.774013382
613,5754537.557401161
2,6, 1, 6, 0, 2, 0.00,60.00,Saturday
12,4871004.480628395
613,6325252.422698466
2,6, 1, 6, 0, 3, 0.00,60.00,Saturday
12,2112617.4312654735
613,7485768.202449928
2,6, 1, 6, 0, 4, 0.00,60.00,Saturday
12,3217440.2040834038
613,8869976.777580779
2,6, 1, 6, 0, 5, 0.00,60.00,Saturday
12,2041944.280519445
613,10121909.058097138
2,6, 1, 6, 0, 6, 0.00,60.00,Saturday
12,17795224.877674559
613,11703388.830618512
2,6, 1, 6, 0, 7, 0.00,60.00,Saturday
12,5584211.322229026
613,11470441.371553991
2,6, 1, 6, 0, 8, 0.00,60.00,Saturday
12,3586525.740971666
613,11344426.41495861
2,6, 1, 6, 0, 9, 0.00,60.00,Saturday
12,3295577.724156646
613,8371162.258072838
2,6, 1, 6, 0,10, 0.00,60.00,Saturday
12,5725137.148254948
613,6236783.791650864
2,6, 1, 6, 0,11, 0.00,60.00,Saturday
12,3118236.771854938
613,3804082.5616896457
2,6, 1, 6, 0,12, 0.00,60.00,Saturday
12,5327462.330128633
613,1548677.7541233949
2,6, 1, 6, 0,13, 0.00,60.00,Saturday
12,10632967.12108992
613,51174.749158133905
2,6, 1, 6, 0,14, 0.00,60.00,Saturday
12,5631570.608139873
613,212162.2329984539
2,6, 1, 6, 0,15, 0.00,60.00,Saturday
12,3117779.9108702077
613,0.0
2,6, 1, 6, 0,16, 0.00,60.00,Saturday
12,4380215.428567708
613,0.0
2,6, 1, 6, 0,17, 0.00,60.00,Saturday
12,3826764.2763235226
613,2256664.9254571695
2,6, 1, 6, 0,18, 0.00,60.00,Saturday
12,7549105.051632032
613,5282855.62081737
2,6, 1, 6, 0,19, 0.00,60.00,Saturday
12,10427740.84968177
613,6741967.052956645
2,6, 1, 6, 0,20, 0.00,60.00,Saturday
12,6544137.000942523
613,8009672.911000013
2,6, 1, 6, 0,21, 0.00,60.00,Saturday
12,9235817.281742793
613,9240866.056711978
2,6, 1, 6, 0,22, 0.00,60.00,Saturday
12,23877567.633004205
613,11576977.833350944
2,6, 1, 6, 0,23, 0.00,60.00,Saturday
12,6677546.555210599
613,12852822.995816609
2,6, 1, 6, 0,24, 0.00,60.00,Saturday
12,4393983.747138328
613,14888612.516061387
2,7, 1, 7, 0, 1, 0.00,60.00,Sunday
12,2596173.48006461
613,16328413.225972994
2,7, 1, 7, 0, 2, 0.00,60.00,Sunday
12,2388386.065089054
613,16897534.1702981
2,7, 1, 7, 0, 3, 0.00,60.00,Sunday
12,2360964.2387064446
613,19161408.882395075
2,7, 1, 7, 0, 4, 0.00,60.00,Sunday
12,5190937.445953306
613,20932285.254790844
2,7, 1, 7, 0, 5, 0.00,60.00,Sunday
12,15460412.10791697
613,23218787.738246114
2,7, 1, 7, 0, 6, 0.00,60.00,Sunday
12,2824397.0222681488
613,22718049.979530947
2,7, 1, 7, 0, 7, 0.00,60.00,Sunday
12,8550822.53412227
613,23115627.0160923
2,7, 1, 7, 0, 8, 0.00,60.00,Sunday
12,4891563.960751988
613,17502306.991938104
2,7, 1, 7, 0, 9, 0.00,60.00,Sunday
12,3468182.8545000224
613,16485925.246855619
2,7, 1, 7, 0,10, 0.00,60.00,Sunday
12,7494793.000753126
613,15600934.223719977
2,7, 1, 7, 0,11, 0.00,60.00,Sunday
12,3584715.515925174
613,14029433.567907455
2,7, 1, 7, 0,12, 0.00,60.00,Sunday
12,3377657.4586800148
613,12465596.109342365
2,7, 1, 7, 0,13, 0.00,60.00,Sunday
12,4692653.667572679
613,11693342.348274462
2,7, 1, 7, 0,14, 0.00,60.00,Sunday
12,3306369.69124587
613,11539279.56412595
2,7, 1, 7, 0,15, 0.00,60.00,Sunday
12,3358232.897140293
613,11304524.89821756
2,7, 1, 7, 0,16, 0.00,60.00,Sunday
12,3427548.812364334
613,11474690.976395149
2,7, 1, 7, 0,17, 0.00,60.00,Sunday
12,10490485.52589416
613,11358771.304476465
2,7, 1, 7, 0,18, 0.00,60.00,Sunday
12,8252015.922866335
613,10184249.904303264
2,7, 1, 7, 0,19, 0.00,60.00,Sunday
12,5473183.378506704
613,9450705.584335708
2,7, 1, 7, 0,20, 0.00,60.00,Sunday
12,5342716.161531301
613,9484499.044279483
2,7, 1, 7, 0,21, 0.00,60.00,Sunday
12,5139296.526178494
613,10458019.202276433
2,7, 1, 7, 0,22, 0.00,60.00,Sunday
12,5995803.501687089
613,11929203.933037252
2,7, 1, 7, 0,23, 0.00,60.00,Sunday
12,5295226.5143519849
613,12094957.056357976
2,7, 1, 7, 0,24, 0.00,60.00,Sunday
12,3185949.9808430306
613,11718459.55779212
2,8, 1, 8, 0, 1, 0.00,60.00,Monday
12,2507698.6591404227
613,12168906.490301209
2,8, 1, 8, 0, 2, 0.00,60.00,Monday
12,3435655.1254774995
613,12779359.897161054
2,8, 1, 8, 0, 3, 0.00,60.00,Monday
12,2248811.1218539916
613,13888703.720616889
2,8, 1, 8, 0, 4, 0.00,60.00,Monday
12,2217042.129645902
613,15191638.280524401
2,8, 1, 8, 0, 5, 0.00,60.00,Monday
12,2170705.689661159
613,16175427.370143056
2,8, 1, 8, 0, 6, 0.00,60.00,Monday
12,2450482.6241386269
613,16073380.591476893
2,8, 1, 8, 0, 7, 0.00,60.00,Monday
12,3174781.7033111897
613,16578906.694311997
2,8, 1, 8, 0, 8, 0.00,60.00,Monday
12,4816946.969877844
613,14637111.840250297
2,8, 1, 8, 0, 9, 0.00,60.00,Monday
12,9712056.497999564
613,8250535.870967257
2,8, 1, 8, 0,10, 0.00,60.00,Monday
12,3045659.4514286599
613,4007480.5146362746
2,8, 1, 8, 0,11, 0.00,60.00,Monday
12,3082382.563854253
613,2118452.4793318628
2,8, 1, 8, 0,12, 0.00,60.00,Monday
12,4273568.5103408829
613,561991.563471051
2,8, 1, 8, 0,13, 0.00,60.00,Monday
12,4087740.3976045616
613,0.0
2,8, 1, 8, 0,14, 0.00,60.00,Monday
12,2867718.2842482228
613,0.0
2,8, 1, 8, 0,15, 0.00,60.00,Monday
12,4307591.538185843
613,0.0
2,8, 1, 8, 0,16, 0.00,60.00,Monday
12,4697819.60518841
613,0.0
2,8, 1, 8, 0,17, 0.00,60.00,Monday
12,3778763.8671756165
613,0.0
2,8, 1, 8, 0,18, 0.00,60.00,Monday
12,6112411.161332197
613,353290.4546172164
2,8, 1, 8, 0,19, 0.00,60.00,Monday
12,15071589.773631525
613,3319763.306483789
2,8, 1, 8, 0,20, 0.00,60.00,Monday
12,5236133.107861093
613,4256070.525298516
2,8, 1, 8, 0,21, 0.00,60.00,Monday
12,5022405.1462855399
613,4962551.939072362
2,8, 1, 8, 0,22, 0.00,60.00,Monday
12,5844010.463640358
613,6464231.444259645
2,8, 1, 8, 0,23, 0.00,60.00,Monday
12,4050819.5467474476
613,7094037.834030475
2,8, 1, 8, 0,24, 0.00,60.00,Monday
12,3131693.972993949
613,9167697.343847707
2,9, 1, 9, 0, 1, 0.00,60.00,Tuesday
12,2481763.989022111
613,10949628.124799028
2,9, 1, 9, 0, 2, 0.00,60.00,Tuesday
12,2284942.9282269168
613,12034315.233627135
2,9, 1, 9, 0, 3, 0.00,60.00,Tuesday
12,2229536.37658334
613,12982531.411431523
2,9, 1, 9, 0, 4, 0.00,60.00,Tuesday
12,2187439.640934172
613,13799923.102094176
2,9, 1, 9, 0, 5, 0.00,60.00,Tuesday
12,3275096.584557228
613,14744690.603563603
2,9, 1, 9, 0, 6, 0.00,60.00,Tuesday
12,2427485.8938656339
613,14992224.919504324
2,9, 1, 9, 0, 7, 0.00,60.00,Tuesday
12,3154804.654266839
613,15639716.660460169
2,9, 1, 9, 0, 8, 0.00,60.00,Tuesday
12,4820172.758037707
613,13048005.990074218
2,9, 1, 9, 0, 9, 0.00,60.00,Tuesday
12,3297111.9130157988
613,8443289.772169821
2,9, 1, 9, 0,10, 0.00,60.00,Tuesday
12,4347756.02426588
613,4883599.256262818
2,9, 1, 9, 0,11, 0.00,60.00,Tuesday
12,4325200.545639237
613,2703999.0298154607
2,9, 1, 9, 0,12, 0.00,60.00,Tuesday
12,4278214.204713211
613,1450270.3417474402
2,9, 1, 9, 0,13, 0.00,60.00,Tuesday
12,3043428.6228568188
613,337374.6868753126
2,9, 1, 9, 0,14, 0.00,60.00,Tuesday
12,3047718.2842482228
613,0.0
2,9, 1, 9, 0,15, 0.00,60.00,Tuesday
12,3117779.9108702077
613,0.0
2,9, 1, 9, 0,16, 0.00,60.00,Tuesday
12,4374481.8528853
613,0.0
2,9, 1, 9, 0,17, 0.00,60.00,Tuesday
12,3778763.8671756165
613,0.0
2,9, 1, 9, 0,18, 0.00,60.00,Tuesday
12,6092750.366879291
613,3613055.7269268527
2,9, 1, 9, 0,19, 0.00,60.00,Tuesday
12,5365152.217538125
613,4371787.797135042
2,9, 1, 9, 0,20, 0.00,60.00,Tuesday
12,5247433.051151351
613,5004911.1199279
2,9, 1, 9, 0,21, 0.00,60.00,Tuesday
12,5060986.912479519
613,6776413.947286949
2,9, 1, 9, 0,22, 0.00,60.00,Tuesday
12,4685452.04618837
613,7833595.869398661
2,9, 1, 9, 0,23, 0.00,60.00,Tuesday
12,4102328.2892501407
613,9515641.620824513
2,9, 1, 9, 0,24, 0.00,60.00,Tuesday
12,9045610.171102586
613,11994259.528251118
2,10, 1,10, 0, 1, 0.00,60.00,Wednesday
12,3099499.292110612
613,13032548.196275823
2,10, 1,10, 0, 2, 0.00,60.00,Wednesday
12,2332852.8664669936
613,14286726.80941299
2,10, 1,10, 0, 3, 0.00,60.00,Wednesday
12,2272920.122139305
613,15022151.045285695
2,10, 1,10, 0, 4, 0.00,60.00,Wednesday
12,2238682.300602585
613,16209017.416363977
2,10, 1,10, 0, 5, 0.00,60.00,Wednesday
12,2190384.284329096
613,17100586.033532464
2,10, 1,10, 0, 6, 0.00,60.00,Wednesday
12,3622487.3312444577
613,17823003.770401315
2,10, 1,10, 0, 7, 0.00,60.00,Wednesday
12,3188456.7128497876
613,17221816.097145544
2,10, 1,10, 0, 8, 0.00,60.00,Wednesday
12,3671276.689794036
613,15328861.068782822
2,10, 1,10, 0, 9, 0.00,60.00,Wednesday
12,3324339.5960293866
613,9723357.13719788
2,10, 1,10, 0,10, 0.00,60.00,Wednesday
12,16557818.246260344
613,5985914.026945663
2,10, 1,10, 0,11, 0.00,60.00,Wednesday
12,12609772.485030072
613,3237651.6818046586
2,10, 1,10, 0,12, 0.00,60.00,Wednesday
12,3918572.6635035865
613,378684.9591584179
2,10, 1,10, 0,13, 0.00,60.00,Wednesday
12,3036252.4919108918
613,0.0
2,10, 1,10, 0,14, 0.00,60.00,Wednesday
12,3047718.2842482228
613,0.0
2,10, 1,10, 0,15, 0.00,60.00,Wednesday
12,4253689.6586650139
613,0.0
2,10, 1,10, 0,16, 0.00,60.00,Wednesday
12,3183476.3071823019
613,0.0
2,10, 1,10, 0,17, 0.00,60.00,Wednesday
12,3778763.8671756165
613,0.0
2,10, 1,10, 0,18, 0.00,60.00,Wednesday
12,4857044.045352411
613,762115.242804175
2,10, 1,10, 0,19, 0.00,60.00,Wednesday
12,6566848.671555569
613,3390051.7685517945
2,10, 1,10, 0,20, 0.00,60.00,Wednesday
12,15696177.819603028
613,3896753.687269607
2,10, 1,10, 0,21, 0.00,60.00,Wednesday
12,5389425.41009683
613,5078120.174822235
2,10, 1,10, 0,22, 0.00,60.00,Wednesday
12,4669802.514781539
613,7097857.377736725
2,10, 1,10, 0,23, 0.00,60.00,Wednesday
12,4086291.627963973
613,8761702.817211016
2,10, 1,10, 0,24, 0.00,60.00,Wednesday
12,4345654.811608302
613,10926066.666843532
2,11, 1,11, 0, 1, 0.00,60.00,Thursday
12,2515117.418681984
613,12517687.984980874
2,11, 1,11, 0, 2, 0.00,60.00,Thursday
12,3505952.0549895085
613,14041371.971408073
2,11, 1,11, 0, 3, 0.00,60.00,Thursday
12,2269533.8648661777
613,14862951.401939042
2,11, 1,11, 0, 4, 0.00,60.00,Thursday
12,2225947.5485718057
613,15610312.764624402
2,11, 1,11, 0, 5, 0.00,60.00,Thursday
12,2171242.157503391
613,16200648.575226332
2,11, 1,11, 0, 6, 0.00,60.00,Thursday
12,3583733.847514725
613,15999015.606994883
2,11, 1,11, 0, 7, 0.00,60.00,Thursday
12,3163128.4645799908
613,16031047.71603446
2,11, 1,11, 0, 8, 0.00,60.00,Thursday
12,4866518.793418287
613,15102304.043973502
2,11, 1,11, 0, 9, 0.00,60.00,Thursday
12,14864862.778269638
613,12882276.032583699
2,11, 1,11, 0,10, 0.00,60.00,Thursday
12,4539798.751343211
613,7574087.546113799
2,11, 1,11, 0,11, 0.00,60.00,Thursday
12,4218504.253642043
613,3608877.5108555268
2,11, 1,11, 0,12, 0.00,60.00,Thursday
12,8242446.231785781
613,1268621.4962568007
2,11, 1,11, 0,13, 0.00,60.00,Thursday
12,2856252.4919108918
613,0.0
2,11, 1,11, 0,14, 0.00,60.00,Thursday
12,2867718.2842482228
613,0.0
2,11, 1,11, 0,15, 0.00,60.00,Thursday
12,4132023.326119737
613,0.0
2,11, 1,11, 0,16, 0.00,60.00,Thursday
12,4180900.941129051
613,0.0
2,11, 1,11, 0,17, 0.00,60.00,Thursday
12,3798785.5363542728
613,941287.7803886656
2,11, 1,11, 0,18, 0.00,60.00,Thursday
12,4875888.66793502
613,1648065.99969488
2,11, 1,11, 0,19, 0.00,60.00,Thursday
12,6451476.46490697
613,1868364.762137292
2,11, 1,11, 0,20, 0.00,60.00,Thursday
12,7901262.812682433
613,3091617.685230884
2,11, 1,11, 0,21, 0.00,60.00,Thursday
12,5001162.135506124
613,3963844.674113453
2,11, 1,11, 0,22, 0.00,60.00,Thursday
12,4600588.567234658
613,3843870.7856600957
2,11, 1,11, 0,23, 0.00,60.00,Thursday
12,5246751.280512359
613,5318445.438825446
2,11, 1,11, 0,24, 0.00,60.00,Thursday
12,3073763.348438906
613,6444178.714238361
2,12, 1,12, 0, 1, 0.00,60.00,Friday
12,2415977.796882309
613,7856792.146592497
2,12, 1,12, 0, 2, 0.00,60.00,Friday
12,3373012.5787363045
613,9838181.37400418
2,12, 1,12, 0, 3, 0.00,60.00,Friday
12,2187935.9356659266
613,11026751.084380372
2,12, 1,12, 0, 4, 0.00,60.00,Friday
12,2167026.210733734
613,12840217.283761437
2,12, 1,12, 0, 5, 0.00,60.00,Friday
12,2131639.230760859
613,14338778.28470569
2,12, 1,12, 0, 6, 0.00,60.00,Friday
12,6957654.113937866
613,14944777.091855839
2,12, 1,12, 0, 7, 0.00,60.00,Friday
12,12862034.384937339
613,16126389.673570505
2,12, 1,12, 0, 8, 0.00,60.00,Friday
12,3664364.6000440816
613,15003899.869967401
2,12, 1,12, 0, 9, 0.00,60.00,Friday
12,3405232.2221437098
613,13526398.72206897
2,12, 1,12, 0,10, 0.00,60.00,Friday
12,3219527.6434837847
613,12181624.394419538
2,12, 1,12, 0,11, 0.00,60.00,Friday
12,20283719.36863769
613,11389114.3445634
2,12, 1,12, 0,12, 0.00,60.00,Friday
12,15272630.526222028
613,9150294.053470588
2,12, 1,12, 0,13, 0.00,60.00,Friday
12,4527721.578197381
613,8716426.532284024
2,12, 1,12, 0,14, 0.00,60.00,Friday
12,4403327.934996614
613,8045669.463005203
2,12, 1,12, 0,15, 0.00,60.00,Friday
12,3286871.476849313
613,7949578.199633284
2,12, 1,12, 0,16, 0.00,60.00,Friday
12,3352298.85328278
613,7936930.646516022
2,12, 1,12, 0,17, 0.00,60.00,Friday
12,5115317.112328753
613,9485943.897850749
2,12, 1,12, 0,18, 0.00,60.00,Friday
12,6338308.361476675
613,10080860.757740023
2,12, 1,12, 0,19, 0.00,60.00,Friday
12,6642742.915129025
613,9445516.800277485
2,12, 1,12, 0,20, 0.00,60.00,Friday
12,7002939.731528304
613,9351321.654829599
2,12, 1,12, 0,21, 0.00,60.00,Friday
12,6516614.679642284
613,11037431.179421584
2,12, 1,12, 0,22, 0.00,60.00,Friday
12,7952340.851098569
613,11831597.366766952
2,12, 1,12, 0,23, 0.00,60.00,Friday
12,4163753.634437469
613,12403459.1306965
2,12, 1,12, 0,24, 0.00,60.00,Friday
12,4349470.02494025
613,13066409.16129867
2,13, 1,13, 0, 1, 0.00,60.00,Saturday
12,2518695.8413713097
613,12685921.987874035
2,13, 1,13, 0, 2, 0.00,60.00,Saturday
12,4995600.991839033
613,11921874.745590572
2,13, 1,13, 0, 3, 0.00,60.00,Saturday
12,2215482.7666804969
613,12321822.698593665
2,13, 1,13, 0, 4, 0.00,60.00,Saturday
12,2159412.3607437245
613,12482263.913672366
2,13, 1,13, 0, 5, 0.00,60.00,Saturday
12,2091908.0482214625
613,12470878.24645146
2,13, 1,13, 0, 6, 0.00,60.00,Saturday
12,18220746.238727
613,13789741.715606815
2,13, 1,13, 0, 7, 0.00,60.00,Saturday
12,5875533.147468481
613,12975264.839692405
2,13, 1,13, 0, 8, 0.00,60.00,Saturday
12,3559899.0020181329
613,10092611.504577516
2,13, 1,13, 0, 9, 0.00,60.00,Saturday
12,3218245.2005812807
613,4735493.382587238
2,13, 1,13, 0,10, 0.00,60.00,Saturday
12,5608223.250998953
613,499852.26663411458
2,13, 1,13, 0,11, 0.00,60.00,Saturday
12,3037322.0036349615
613,0.0
2,13, 1,13, 0,12, 0.00,60.00,Saturday
12,5295646.279077299
613,0.0
2,13, 1,13, 0,13, 0.00,60.00,Saturday
12,10645084.641047154
613,0.0
2,13, 1,13, 0,14, 0.00,60.00,Saturday
12,5492502.771014848
613,0.0
2,13, 1,13, 0,15, 0.00,60.00,Saturday
12,3117779.9108702077
613,0.0
2,13, 1,13, 0,16, 0.00,60.00,Saturday
12,4380544.538494643
613,0.0
2,13, 1,13, 0,17, 0.00,60.00,Saturday
12,3778763.8671756165
613,0.0
2,13, 1,13, 0,18, 0.00,60.00,Saturday
12,7439895.241542814
613,0.0
2,13, 1,13, 0,19, 0.00,60.00,Saturday
12,10310848.164899465
613,0.0
2,13, 1,13, 0,20, 0.00,60.00,Saturday
12,6374818.61551851
613,0.0
2,13, 1,13, 0,21, 0.00,60.00,Saturday
12,9042935.0305782
613,0.0
2,13, 1,13, 0,22, 0.00,60.00,Saturday
12,23720647.400477966
613,0.0
2,13, 1,13, 0,23, 0.00,60.00,Saturday
12,6617340.53388609
613,1255820.6883166815
2,13, 1,13, 0,24, 0.00,60.00,Saturday
12,4132556.2396499228
613,2594626.307689214
2,14, 1,14, 0, 1, 0.00,60.00,Sunday
12,2304607.745766662
613,2620901.6081466388
2,14, 1,14, 0, 2, 0.00,60.00,Sunday
12,2092782.6505561085
613,3000197.2670568816
2,14, 1,14, 0, 3, 0.00,60.00,Sunday
12,2029008.7436020713
613,3555035.1886515759
2,14, 1,14, 0, 4, 0.00,60.00,Sunday
12,4854018.569990357
613,4686109.335875635
2,14, 1,14, 0, 5, 0.00,60.00,Sunday
12,15169529.271735009
613,6158311.377234801
2,14, 1,14, 0, 6, 0.00,60.00,Sunday
12,2568054.536404627
613,6093179.867998251
2,14, 1,14, 0, 7, 0.00,60.00,Sunday
12,8232756.7282033399
613,6611911.013610032
2,14, 1,14, 0, 8, 0.00,60.00,Sunday
12,4649911.546005664
613,6119323.129250648
2,14, 1,14, 0, 9, 0.00,60.00,Sunday
12,3192984.6068688
613,3547905.675750652
2,14, 1,14, 0,10, 0.00,60.00,Sunday
12,7288221.959444933
613,1536682.8225866582
2,14, 1,14, 0,11, 0.00,60.00,Sunday
12,2915660.13813164
613,0.0
2,14, 1,14, 0,12, 0.00,60.00,Sunday
12,2932507.89802924
613,0.0
2,14, 1,14, 0,13, 0.00,60.00,Sunday
12,4264746.43189297
613,0.0
2,14, 1,14, 0,14, 0.00,60.00,Sunday
12,2880923.353997593
613,0.0
2,14, 1,14, 0,15, 0.00,60.00,Sunday
12,2937779.9108702077
613,0.0
2,14, 1,14, 0,16, 0.00,60.00,Sunday
12,3003476.3071823019
613,0.0
2,14, 1,14, 0,17, 0.00,60.00,Sunday
12,10170525.897675526
613,0.0
2,14, 1,14, 0,18, 0.00,60.00,Sunday
12,7991998.529975566
613,0.0
2,14, 1,14, 0,19, 0.00,60.00,Sunday
12,5272162.070616869
613,0.0
2,14, 1,14, 0,20, 0.00,60.00,Sunday
12,5146506.679723386
613,260014.01387712779
2,14, 1,14, 0,21, 0.00,60.00,Sunday
12,4971105.1278918259
613,2550760.993131014
2,14, 1,14, 0,22, 0.00,60.00,Sunday
12,5826523.196329448
613,3915812.028231317
2,14, 1,14, 0,23, 0.00,60.00,Sunday
12,5146008.435469371
613,5076357.607939459
2,14, 1,14, 0,24, 0.00,60.00,Sunday
12,3082006.219025345
613,6831704.513866061
2,15, 1,15, 0, 1, 0.00,60.00,Monday
12,3556285.507635398
613,8115159.611357976
2,15, 1,15, 0, 2, 0.00,60.00,Monday
12,2232643.1247747868
613,9575520.940956535
2,15, 1,15, 0, 3, 0.00,60.00,Monday
12,2177277.899153039
613,10525679.997699343
2,15, 1,15, 0, 4, 0.00,60.00,Monday
12,2142041.0247558068
613,11665577.4451993
2,15, 1,15, 0, 5, 0.00,60.00,Monday
12,2087881.847941653
613,12281592.673357383
2,15, 1,15, 0, 6, 0.00,60.00,Monday
12,2373298.681342195
613,12444697.011291245
2,15, 1,15, 0, 7, 0.00,60.00,Monday
12,3110715.18241922
613,13566918.397556331
2,15, 1,15, 0, 8, 0.00,60.00,Monday
12,4754852.087665215
613,11702188.294598932
2,15, 1,15, 0, 9, 0.00,60.00,Monday
12,9666818.442210209
613,5164803.614890771
2,15, 1,15, 0,10, 0.00,60.00,Monday
12,2969292.612443317
613,417211.8051501803
2,15, 1,15, 0,11, 0.00,60.00,Monday
12,2857322.0036349615
613,0.0
2,15, 1,15, 0,12, 0.00,60.00,Monday
12,4081717.771650124
613,0.0
2,15, 1,15, 0,13, 0.00,60.00,Monday
12,4088647.886957985
613,0.0
2,15, 1,15, 0,14, 0.00,60.00,Monday
12,2867718.2842482228
613,0.0
2,15, 1,15, 0,15, 0.00,60.00,Monday
12,4128006.895698174
613,0.0
2,15, 1,15, 0,16, 0.00,60.00,Monday
12,4518722.821377167
613,0.0
2,15, 1,15, 0,17, 0.00,60.00,Monday
12,3778763.8671756165
613,0.0
2,15, 1,15, 0,18, 0.00,60.00,Monday
12,6230593.022247053
613,0.0
2,15, 1,15, 0,19, 0.00,60.00,Monday
12,14881900.088800699
613,0.0
2,15, 1,15, 0,20, 0.00,60.00,Monday
12,5140976.049584415
613,0.0
2,15, 1,15, 0,21, 0.00,60.00,Monday
12,4916849.146010065
613,0.0
2,15, 1,15, 0,22, 0.00,60.00,Monday
12,5707028.93633648
613,0.0
2,15, 1,15, 0,23, 0.00,60.00,Monday
12,3925746.126754262
613,1213904.6223345889
2,15, 1,15, 0,24, 0.00,60.00,Monday
12,3006875.940558195
613,3299570.7827925935
2,16, 1,16, 0, 1, 0.00,60.00,Tuesday
12,2320603.350659648
613,3372910.208995145
2,16, 1,16, 0, 2, 0.00,60.00,Tuesday
12,2121033.4674531088
613,4328365.687674473
2,16, 1,16, 0, 3, 0.00,60.00,Tuesday
12,2033441.3291671768
613,3763426.3367986485
2,16, 1,16, 0, 4, 0.00,60.00,Tuesday
12,3182531.355167702
613,7228475.214315997
2,16, 1,16, 0, 5, 0.00,60.00,Tuesday
12,2023736.3334296584
613,9265890.613848247
2,16, 1,16, 0, 6, 0.00,60.00,Tuesday
12,2322891.50195725
613,10074881.509120776
2,16, 1,16, 0, 7, 0.00,60.00,Tuesday
12,3046730.9375802318
613,10558798.182057977
2,16, 1,16, 0, 8, 0.00,60.00,Tuesday
12,4760372.600253109
613,10196608.498360036
2,16, 1,16, 0, 9, 0.00,60.00,Tuesday
12,3317755.6040956198
613,9413820.949274116
2,16, 1,16, 0,10, 0.00,60.00,Tuesday
12,4915651.537137807
613,8815376.46751402
2,16, 1,16, 0,11, 0.00,60.00,Tuesday
12,5199445.427073164
613,7603912.088385643
2,16, 1,16, 0,12, 0.00,60.00,Tuesday
12,3232507.5198760975
613,5641596.446719857
2,16, 1,16, 0,13, 0.00,60.00,Tuesday
12,3124982.1961652797
613,4171489.680849918
2,16, 1,16, 0,14, 0.00,60.00,Tuesday
12,3116037.608705537
613,3211927.2725089679
2,16, 1,16, 0,15, 0.00,60.00,Tuesday
12,3164356.87986215
613,2189744.090187786
2,16, 1,16, 0,16, 0.00,60.00,Tuesday
12,4408068.446299478
613,1537963.613576769
2,16, 1,16, 0,17, 0.00,60.00,Tuesday