Program Version,EnergyPlus, Version 9.2.0-921312fa1d, YMD=2019.10.18 18:59
1,5,Environment Title[],Latitude[deg],Longitude[deg],Time Zone[],Elevation[m]
2,8,Day of Simulation[],Month[],Day of Month[],DST Indicator[1=yes 0=no],Hour[],StartMinute[],EndMinute[],DayType
3,5,Cumulative Day of Simulation[],Month[],Day of Month[],DST Indicator[1=yes 0=no],DayType  ! When Daily Meters Requested
4,2,Cumulative Days of Simulation[],Month[]  ! When Monthly Meters Requested
5,1,Cumulative Days of Simulation[] ! When Run Period Meters Requested
6,1,Calendar Year of Simulation[] ! When Annual Meters Requested
613,1,Gas:Facility [J] !Hourly
12,1,Electricity:Facility [J] !Hourly
End of Data Dictionary
1,RUN PERIOD 1,  39.83,-104.65,  -7.00,1650.00
2,1, 1, 1, 0, 1, 0.00,60.00,Monday
12,2740205.7269293356
613,23099866.332401214
2,1, 1, 1, 0, 2, 0.00,60.00,Monday
12,2520404.6058235189
613,23104181.481730444
2,1, 1, 1, 0, 3, 0.00,60.00,Monday
12,2442318.2144817986
613,22986140.1073526
2,1, 1, 1, 0, 4, 0.00,60.00,Monday
12,2382654.153948451
613,22977631.21499972
2,1, 1, 1, 0, 5, 0.00,60.00,Monday
12,2310021.1666017447
613,22725128.84073709
2,1, 1, 1, 0, 6, 0.00,60.00,Monday
12,2572983.7255927126
613,21832580.229327568
2,1, 1, 1, 0, 7, 0.00,60.00,Monday
12,3268867.008109768
613,21002181.64360813
2,1, 1, 1, 0, 8, 0.00,60.00,Monday
12,4926255.220994022
613,19786313.047367846
2,1, 1, 1, 0, 9, 0.00,60.00,Monday
12,9893214.831409947
613,17530364.17434246
2,1, 1, 1, 0,10, 0.00,60.00,Monday
12,3210075.1099657139
613,11737228.164770557
2,1, 1, 1, 0,11, 0.00,60.00,Monday
12,3213182.572380419
613,8267812.385431176
2,1, 1, 1, 0,12, 0.00,60.00,Monday
12,4382323.738938633
613,5679496.584665936
2,1, 1, 1, 0,13, 0.00,60.00,Monday
12,4371779.581267695
613,4936786.462197829
2,1, 1, 1, 0,14, 0.00,60.00,Monday
12,3145218.3102691036
613,4583812.781147524
2,1, 1, 1, 0,15, 0.00,60.00,Monday
12,4389512.232138472
613,3864328.6082500789
2,1, 1, 1, 0,16, 0.00,60.00,Monday
12,4786391.5905566769
613,4188074.74829931
2,1, 1, 1, 0,17, 0.00,60.00,Monday
12,3930159.660568302
613,7117638.846750055
2,1, 1, 1, 0,18, 0.00,60.00,Monday
12,6298903.788363521
613,9160706.602436025
2,1, 1, 1, 0,19, 0.00,60.00,Monday
12,15151767.256094747
613,11673223.165199226
2,1, 1, 1, 0,20, 0.00,60.00,Monday
12,5405016.998559128
613,12413476.447661726
2,1, 1, 1, 0,21, 0.00,60.00,Monday
12,5196322.9296314329
613,13139027.276617609
2,1, 1, 1, 0,22, 0.00,60.00,Monday
12,6002786.37493019
613,13950685.318700793
2,1, 1, 1, 0,23, 0.00,60.00,Monday
12,4217920.740960913
613,14950041.78644645
2,1, 1, 1, 0,24, 0.00,60.00,Monday
12,3271966.2673885289
613,15762382.105768279
2,2, 1, 2, 0, 1, 0.00,60.00,Tuesday
12,2603706.1780681598
613,16682551.36105208
2,2, 1, 2, 0, 2, 0.00,60.00,Tuesday
12,2401146.8761525705
613,17497463.94711917
2,2, 1, 2, 0, 3, 0.00,60.00,Tuesday
12,2329124.2207558599
613,17664499.730774944
2,2, 1, 2, 0, 4, 0.00,60.00,Tuesday
12,3431601.6093724009
613,18941345.447505759
2,2, 1, 2, 0, 5, 0.00,60.00,Tuesday
12,2221355.146767551
613,18556633.18431117
2,2, 1, 2, 0, 6, 0.00,60.00,Tuesday
12,2508569.268092627
613,18804234.2315907
2,2, 1, 2, 0, 7, 0.00,60.00,Tuesday
12,3199111.7394156
613,17722745.675824606
2,2, 1, 2, 0, 8, 0.00,60.00,Tuesday
12,4881176.665952853
613,15945957.185792484
2,2, 1, 2, 0, 9, 0.00,60.00,Tuesday
12,3422681.3371939386
613,14346741.852744887
2,2, 1, 2, 0,10, 0.00,60.00,Tuesday
12,4442607.671815151
613,9418989.12209259
2,2, 1, 2, 0,11, 0.00,60.00,Tuesday
12,4943816.7640995499
613,5165972.2388879
2,2, 1, 2, 0,12, 0.00,60.00,Tuesday
12,3784258.0807090394
613,2887291.4790818167
2,2, 1, 2, 0,13, 0.00,60.00,Tuesday
12,3077058.9320894444
613,1918451.6115259478
2,2, 1, 2, 0,14, 0.00,60.00,Tuesday
12,3090047.486606434
613,1990041.9179764728
2,2, 1, 2, 0,15, 0.00,60.00,Tuesday
12,2949153.751596985
613,534723.5136426909
2,2, 1, 2, 0,16, 0.00,60.00,Tuesday
12,4401679.460976448
613,1303002.0076181926
2,2, 1, 2, 0,17, 0.00,60.00,Tuesday
12,3843004.288305594
613,3020163.947226306
2,2, 1, 2, 0,18, 0.00,60.00,Tuesday
12,6104211.54080422
613,4173531.7515990117
2,2, 1, 2, 0,19, 0.00,60.00,Tuesday
12,5405916.651362815
613,6288264.544965263
2,2, 1, 2, 0,20, 0.00,60.00,Tuesday
12,5300198.424372373
613,7485593.454522755
2,2, 1, 2, 0,21, 0.00,60.00,Tuesday
12,5108437.095846176
613,9007210.859456955
2,2, 1, 2, 0,22, 0.00,60.00,Tuesday
12,4716835.285689563
613,9309030.289370729
2,2, 1, 2, 0,23, 0.00,60.00,Tuesday
12,4096530.609996944
613,9243072.70626746
2,2, 1, 2, 0,24, 0.00,60.00,Tuesday
12,8921897.32962694
613,10869467.04369709
2,3, 1, 3, 0, 1, 0.00,60.00,Wednesday
12,3122007.148576591
613,11873764.95979017
2,3, 1, 3, 0, 2, 0.00,60.00,Wednesday
12,2297439.785523477
613,12621835.63272819
2,3, 1, 3, 0, 3, 0.00,60.00,Wednesday
12,2238526.534165631
613,13405189.752275546
2,3, 1, 3, 0, 4, 0.00,60.00,Wednesday
12,2196900.163235667
613,14244694.91202823
2,3, 1, 3, 0, 5, 0.00,60.00,Wednesday
12,2140426.0720341859
613,14751878.024042836
2,3, 1, 3, 0, 6, 0.00,60.00,Wednesday
12,3555574.724011356
613,14677375.826876762
2,3, 1, 3, 0, 7, 0.00,60.00,Wednesday
12,3128045.50261659
613,14381676.57213438
2,3, 1, 3, 0, 8, 0.00,60.00,Wednesday
12,3639163.5352247359
613,13819110.8218834
2,3, 1, 3, 0, 9, 0.00,60.00,Wednesday
12,3343914.9996182939
613,10643664.431759412
2,3, 1, 3, 0,10, 0.00,60.00,Wednesday
12,15821443.78034829
613,8498725.287060406
2,3, 1, 3, 0,11, 0.00,60.00,Wednesday
12,13594438.168282925
613,5535917.7958514
2,3, 1, 3, 0,12, 0.00,60.00,Wednesday
12,3488267.6992431597
613,2211817.6989088549
2,3, 1, 3, 0,13, 0.00,60.00,Wednesday
12,3067296.98117852
613,1459508.6021687468
2,3, 1, 3, 0,14, 0.00,60.00,Wednesday
12,3080834.398762924
613,1556902.85602513
2,3, 1, 3, 0,15, 0.00,60.00,Wednesday
12,4290655.533794647
613,1731876.7901527002
2,3, 1, 3, 0,16, 0.00,60.00,Wednesday
12,3280330.5943780138
613,4553454.369966604
2,3, 1, 3, 0,17, 0.00,60.00,Wednesday
12,3948122.76953368
613,7962146.605619898
2,3, 1, 3, 0,18, 0.00,60.00,Wednesday
12,5048497.441248363
613,9763000.25707087
2,3, 1, 3, 0,19, 0.00,60.00,Wednesday
12,6714478.383782916
613,10386096.307798269
2,3, 1, 3, 0,20, 0.00,60.00,Wednesday
12,15784170.167450034
613,11228307.256419672
2,3, 1, 3, 0,21, 0.00,60.00,Wednesday
12,5587344.47927828
613,13585379.22096154
2,3, 1, 3, 0,22, 0.00,60.00,Wednesday
12,4844245.181258833
613,15299009.28312012
2,3, 1, 3, 0,23, 0.00,60.00,Wednesday
12,4269507.336304284
613,17375305.704018997
2,3, 1, 3, 0,24, 0.00,60.00,Wednesday
12,4520104.684333034
613,19153536.49742449
2,4, 1, 4, 0, 1, 0.00,60.00,Thursday
12,2691150.342870429
613,20793603.39473637
2,4, 1, 4, 0, 2, 0.00,60.00,Thursday
12,3705091.111981715
613,23429775.544912343
2,4, 1, 4, 0, 3, 0.00,60.00,Thursday
12,2473234.364731868
613,24439615.049295624
2,4, 1, 4, 0, 4, 0.00,60.00,Thursday
12,2414350.60909166
613,24467790.98348424
2,4, 1, 4, 0, 5, 0.00,60.00,Thursday
12,2354453.9979791257
613,24814069.620369216
2,4, 1, 4, 0, 6, 0.00,60.00,Thursday
12,3767220.90751855
613,24626302.509672487
2,4, 1, 4, 0, 7, 0.00,60.00,Thursday
12,3324025.948377391
613,23595393.827358076
2,4, 1, 4, 0, 8, 0.00,60.00,Thursday
12,4712361.9488895819
613,20778542.7215621
2,4, 1, 4, 0, 9, 0.00,60.00,Thursday
12,14902000.447276397
613,18860099.227013809
2,4, 1, 4, 0,10, 0.00,60.00,Thursday
12,4875017.559197472
613,15004127.778227373
2,4, 1, 4, 0,11, 0.00,60.00,Thursday
12,4451132.4724633679
613,12998171.833388906
2,4, 1, 4, 0,12, 0.00,60.00,Thursday
12,8447832.360708576
613,12420867.422079012
2,4, 1, 4, 0,13, 0.00,60.00,Thursday
12,3255035.9228683609
613,10285764.302374425
2,4, 1, 4, 0,14, 0.00,60.00,Thursday
12,3243640.4467787409
613,9210977.159381669
2,4, 1, 4, 0,15, 0.00,60.00,Thursday
12,4301094.7384972129
613,7978719.363222744
2,4, 1, 4, 0,16, 0.00,60.00,Thursday
12,4027700.6993577156
613,8267279.177762609
2,4, 1, 4, 0,17, 0.00,60.00,Thursday
12,4277251.316652045
613,8555651.72281662
2,4, 1, 4, 0,18, 0.00,60.00,Thursday
12,5015340.734918583
613,8204189.039701027
2,4, 1, 4, 0,19, 0.00,60.00,Thursday
12,5444714.239001815
613,8112273.0642989189
2,4, 1, 4, 0,20, 0.00,60.00,Thursday
12,7992933.435269631
613,7625948.906196694
2,4, 1, 4, 0,21, 0.00,60.00,Thursday
12,6219185.627821206
613,7876265.619072292
2,4, 1, 4, 0,22, 0.00,60.00,Thursday
12,4691288.956466792
613,8108009.169872168
2,4, 1, 4, 0,23, 0.00,60.00,Thursday
12,5317975.922436118
613,8737675.762799228
2,4, 1, 4, 0,24, 0.00,60.00,Thursday
12,2910607.4751714474
613,7236079.255755714
2,5, 1, 5, 0, 1, 0.00,60.00,Friday
12,2451534.7639454246
613,9528447.906436554
2,5, 1, 5, 0, 2, 0.00,60.00,Friday
12,2010349.5882175505
613,7587155.795397807
2,5, 1, 5, 0, 3, 0.00,60.00,Friday
12,2244060.244185584
613,7347512.124569368
2,5, 1, 5, 0, 4, 0.00,60.00,Friday
12,2883253.872803869
613,7947794.917694864
2,5, 1, 5, 0, 5, 0.00,60.00,Friday
12,1996413.0467212892
613,7981328.589116501
2,5, 1, 5, 0, 6, 0.00,60.00,Friday
12,6166228.935050667
613,7658716.435364738
2,5, 1, 5, 0, 7, 0.00,60.00,Friday
12,13361081.209681519
613,9816348.879188749
2,5, 1, 5, 0, 8, 0.00,60.00,Friday
12,3438311.9214338988
613,5816873.727929346
2,5, 1, 5, 0, 9, 0.00,60.00,Friday
12,3169604.1333587688
613,2448708.909571239
2,5, 1, 5, 0,10, 0.00,60.00,Friday
12,2780418.3054415865
613,0.0
2,5, 1, 5, 0,11, 0.00,60.00,Friday
12,19681721.78403432
613,0.0
2,5, 1, 5, 0,12, 0.00,60.00,Friday
12,14678289.667868974
613,0.0
2,5, 1, 5, 0,13, 0.00,60.00,Friday
12,4159314.9555322097
613,0.0
2,5, 1, 5, 0,14, 0.00,60.00,Friday
12,4051059.9548947776
613,0.0
2,5, 1, 5, 0,15, 0.00,60.00,Friday
12,2937779.9108702077
613,0.0
2,5, 1, 5, 0,16, 0.00,60.00,Friday
12,3183476.3071823019
613,0.0
2,5, 1, 5, 0,17, 0.00,60.00,Friday
12,3778763.8671756165
613,0.0
2,5, 1, 5, 0,18, 0.00,60.00,Friday
12,7403770.512441192
613,0.0
2,5, 1, 5, 0,19, 0.00,60.00,Friday
12,5272162.070616869
613,0.0
2,5, 1, 5, 0,20, 0.00,60.00,Friday
12,8069174.8210003
613,0.0
2,5, 1, 5, 0,21, 0.00,60.00,Friday
12,6310368.998093324
613,1402700.6171754639
2,5, 1, 5, 0,22, 0.00,60.00,Friday
12,7772160.663731719
613,3558844.057672613
2,5, 1, 5, 0,23, 0.00,60.00,Friday
12,3996374.7285158049
613,4534398.992252015
2,5, 1, 5, 0,24, 0.00,60.00,Friday
12,3068240.04642984
613,6184509.221043835
2,6, 1, 6, 0, 1, 0.00,60.00,Saturday
12,2406822.3306401006
613,7426362.075020904
2,6, 1, 6, 0, 2, 0.00,60.00,Saturday
12,4911827.751424341
613,8243800.594320206
2,6, 1, 6, 0, 3, 0.00,60.00,Saturday
12,2150023.920425497
613,9244376.380388786
2,6, 1, 6, 0, 4, 0.00,60.00,Saturday
12,3250909.3114697348
613,10443340.733138813
2,6, 1, 6, 0, 5, 0.00,60.00,Saturday
12,2071332.6359146576
613,11503557.090156455
2,6, 1, 6, 0, 6, 0.00,60.00,Saturday
12,17824238.749470969
613,12904605.93299279
2,6, 1, 6, 0, 7, 0.00,60.00,Saturday
12,5606508.952939061
613,12493847.910386447
2,6, 1, 6, 0, 8, 0.00,60.00,Saturday
12,3604857.9303927097
613,12206285.920068918
2,6, 1, 6, 0, 9, 0.00,60.00,Saturday
12,3310700.835254578
613,9082151.913876294
2,6, 1, 6, 0,10, 0.00,60.00,Saturday
12,5737070.219710181
613,6797778.028140142
2,6, 1, 6, 0,11, 0.00,60.00,Saturday
12,3129628.16209245
613,4339631.138410665
2,6, 1, 6, 0,12, 0.00,60.00,Saturday
12,5335891.276829006
613,1944951.8897383833
2,6, 1, 6, 0,13, 0.00,60.00,Saturday
12,10643759.31966113
613,559286.6686830432
2,6, 1, 6, 0,14, 0.00,60.00,Saturday
12,5644661.654523322
613,827030.8926164269
2,6, 1, 6, 0,15, 0.00,60.00,Saturday
12,3117779.9108702077
613,0.0
2,6, 1, 6, 0,16, 0.00,60.00,Saturday
12,4380249.031371035
613,0.0
2,6, 1, 6, 0,17, 0.00,60.00,Saturday
12,3854942.5774803676
613,3581424.1308147839
2,6, 1, 6, 0,18, 0.00,60.00,Saturday
12,7575423.660184611
613,6520175.905347346
2,6, 1, 6, 0,19, 0.00,60.00,Saturday
12,10455348.724802968
613,8039566.593801633
2,6, 1, 6, 0,20, 0.00,60.00,Saturday
12,6578502.918529635
613,9625269.292212263
2,6, 1, 6, 0,21, 0.00,60.00,Saturday
12,9273051.391521942
613,10991287.842327377
2,6, 1, 6, 0,22, 0.00,60.00,Saturday
12,23915316.964816039
613,13307996.636647972
2,6, 1, 6, 0,23, 0.00,60.00,Saturday
12,6712409.664845779
613,14487725.440881433
2,6, 1, 6, 0,24, 0.00,60.00,Saturday
12,4426090.459116445
613,16398059.928459913
2,7, 1, 7, 0, 1, 0.00,60.00,Sunday
12,2625127.7474353418
613,17689653.281583858
2,7, 1, 7, 0, 2, 0.00,60.00,Sunday
12,2414099.4961771618
613,18106411.325300915
2,7, 1, 7, 0, 3, 0.00,60.00,Sunday
12,2383437.1212398775
613,20217936.663873979
2,7, 1, 7, 0, 4, 0.00,60.00,Sunday
12,5210392.851624458
613,21846951.14475913
2,7, 1, 7, 0, 5, 0.00,60.00,Sunday
12,15477080.682824459
613,24002757.66079072
2,7, 1, 7, 0, 6, 0.00,60.00,Sunday
12,2838583.436475206
613,23384921.757190594
2,7, 1, 7, 0, 7, 0.00,60.00,Sunday
12,8562759.617080685
613,23676830.412193609
2,7, 1, 7, 0, 8, 0.00,60.00,Sunday
12,4901684.554737302
613,17978111.050272809
2,7, 1, 7, 0, 9, 0.00,60.00,Sunday
12,3476469.731194685
613,16875519.92553451
2,7, 1, 7, 0,10, 0.00,60.00,Sunday
12,7501429.354479024
613,15912934.645283863
2,7, 1, 7, 0,11, 0.00,60.00,Sunday
12,3590001.424031707
613,14277940.468272752
2,7, 1, 7, 0,12, 0.00,60.00,Sunday
12,3381758.475369731
613,12658399.060123075
2,7, 1, 7, 0,13, 0.00,60.00,Sunday
12,4695708.021609392
613,11836938.07481142
2,7, 1, 7, 0,14, 0.00,60.00,Sunday
12,3308536.684278949
613,11641157.386800157
2,7, 1, 7, 0,15, 0.00,60.00,Sunday
12,3359706.994515538
613,11373827.304227785
2,7, 1, 7, 0,16, 0.00,60.00,Sunday
12,3428501.38544109
613,11519474.724896694
2,7, 1, 7, 0,17, 0.00,60.00,Sunday
12,10491006.930686236
613,11383284.387117004
2,7, 1, 7, 0,18, 0.00,60.00,Sunday
12,8252455.274463961
613,10204905.3040903
2,7, 1, 7, 0,19, 0.00,60.00,Sunday
12,5473497.712014454
613,9465483.487575073
2,7, 1, 7, 0,20, 0.00,60.00,Sunday
12,5342750.307424627
613,9486104.360592103
2,7, 1, 7, 0,21, 0.00,60.00,Sunday
12,5139000.721707085
613,10444112.412995466
2,7, 1, 7, 0,22, 0.00,60.00,Sunday
12,5995241.413885038
613,11902778.245216489
2,7, 1, 7, 0,23, 0.00,60.00,Sunday
12,5294606.868209958
613,12065825.35228664
2,7, 1, 7, 0,24, 0.00,60.00,Sunday
12,3185329.0634251364
613,11689268.086647576
2,8, 1, 8, 0, 1, 0.00,60.00,Monday
12,2507056.282791122
613,12138706.160717698
2,8, 1, 8, 0, 2, 0.00,60.00,Monday
12,3434911.2545103828
613,12744387.955252605
2,8, 1, 8, 0, 3, 0.00,60.00,Monday
12,2247922.203372651
613,13846912.594373536
2,8, 1, 8, 0, 4, 0.00,60.00,Monday
12,2216039.7112094077
613,15144511.129601617
2,8, 1, 8, 0, 5, 0.00,60.00,Monday
12,2169622.4579247829
613,16124500.907035422
2,8, 1, 8, 0, 6, 0.00,60.00,Monday
12,2449408.3087715229
613,16022873.317666932
2,8, 1, 8, 0, 7, 0.00,60.00,Monday
12,3173666.596307044
613,16526481.66483707
2,8, 1, 8, 0, 8, 0.00,60.00,Monday
12,4816174.6581462579
613,14600802.799830499
2,8, 1, 8, 0, 9, 0.00,60.00,Monday
12,9712414.143289108
613,8267350.010606868
2,8, 1, 8, 0,10, 0.00,60.00,Monday
12,3048899.8244958037
613,4159821.637885607
2,8, 1, 8, 0,11, 0.00,60.00,Monday
12,3082379.148484444
613,2118291.911007718
2,8, 1, 8, 0,12, 0.00,60.00,Monday
12,4273703.140087753
613,568320.9725982699
2,8, 1, 8, 0,13, 0.00,60.00,Monday
12,4087740.3976045439
613,0.0
2,8, 1, 8, 0,14, 0.00,60.00,Monday
12,2867718.2842482228
613,0.0
2,8, 1, 8, 0,15, 0.00,60.00,Monday
12,4307594.973915184
613,0.0
2,8, 1, 8, 0,16, 0.00,60.00,Monday
12,4697827.84114413
613,0.0
2,8, 1, 8, 0,17, 0.00,60.00,Monday
12,3778763.8671756165
613,0.0
2,8, 1, 8, 0,18, 0.00,60.00,Monday
12,6135711.356408277
613,1447253.1539223416
2,8, 1, 8, 0,19, 0.00,60.00,Monday
12,15096900.132495642
613,4455471.241421042
2,8, 1, 8, 0,20, 0.00,60.00,Monday
12,5262612.574203986
613,5526818.400468937
2,8, 1, 8, 0,21, 0.00,60.00,Monday
12,5050477.939184742
613,6282350.837036909
2,8, 1, 8, 0,22, 0.00,60.00,Monday
12,5873877.225640205
613,7868372.465387778
2,8, 1, 8, 0,23, 0.00,60.00,Monday
12,4087259.0117863055
613,8807182.86998692
2,8, 1, 8, 0,24, 0.00,60.00,Monday
12,3166662.319192699
613,10811680.00501228
2,9, 1, 9, 0, 1, 0.00,60.00,Tuesday
12,2514488.888941709
613,12488138.632284442
2,9, 1, 9, 0, 2, 0.00,60.00,Tuesday
12,2314692.8124370577
613,13432959.983228516
2,9, 1, 9, 0, 3, 0.00,60.00,Tuesday
12,2256077.5460313765
613,14230323.40398397
2,9, 1, 9, 0, 4, 0.00,60.00,Tuesday
12,2210755.0607490718
613,14896061.46950822
2,9, 1, 9, 0, 5, 0.00,60.00,Tuesday
12,3295349.679067603
613,15696858.21019098
2,9, 1, 9, 0, 6, 0.00,60.00,Tuesday
12,2444912.5310813246
613,15811511.289587936
2,9, 1, 9, 0, 7, 0.00,60.00,Tuesday
12,3169737.363388213
613,16341754.862101803
2,9, 1, 9, 0, 8, 0.00,60.00,Tuesday
12,4832819.475297378
613,13642571.668977188
2,9, 1, 9, 0, 9, 0.00,60.00,Tuesday
12,3307831.7886547108
613,8947268.129626193
2,9, 1, 9, 0,10, 0.00,60.00,Tuesday
12,4359394.363372549
613,5430756.669558998
2,9, 1, 9, 0,11, 0.00,60.00,Tuesday
12,4333206.679801498
613,3080394.456752063
2,9, 1, 9, 0,12, 0.00,60.00,Tuesday
12,4285777.08822403
613,1805827.3167347722
2,9, 1, 9, 0,13, 0.00,60.00,Tuesday
12,3052841.453873484
613,779904.3648851516
2,9, 1, 9, 0,14, 0.00,60.00,Tuesday
12,3047718.2842482228
613,0.0
2,9, 1, 9, 0,15, 0.00,60.00,Tuesday
12,3117779.9108702077
613,0.0
2,9, 1, 9, 0,16, 0.00,60.00,Tuesday
12,4374517.682659505
613,0.0
2,9, 1, 9, 0,17, 0.00,60.00,Tuesday
12,3802697.753387813
613,1125214.6076197145
2,9, 1, 9, 0,18, 0.00,60.00,Tuesday
12,6117854.288744807
613,4793082.914667716
2,9, 1, 9, 0,19, 0.00,60.00,Tuesday
12,5394041.121983596
613,5729954.916004761
2,9, 1, 9, 0,20, 0.00,60.00,Tuesday
12,5276992.311910232
613,6394594.003077181
2,9, 1, 9, 0,21, 0.00,60.00,Tuesday
12,5098011.738935297
613,8517078.844047275
2,9, 1, 9, 0,22, 0.00,60.00,Tuesday
12,4722565.398431551
613,9578422.669004744
2,9, 1, 9, 0,23, 0.00,60.00,Tuesday
12,4138144.945390347
613,11199506.260596846
2,9, 1, 9, 0,24, 0.00,60.00,Tuesday
12,9083318.790626686
613,13575382.44838722
2,10, 1,10, 0, 1, 0.00,60.00,Wednesday
12,3127343.859015617
613,14472074.037049754
2,10, 1,10, 0, 2, 0.00,60.00,Wednesday
12,2360288.669074663
613,15576578.594961664
2,10, 1,10, 0, 3, 0.00,60.00,Wednesday
12,2297126.930282784
613,16160196.654987427
2,10, 1,10, 0, 4, 0.00,60.00,Wednesday
12,2259762.9970626395
613,17200093.724881013
2,10, 1,10, 0, 5, 0.00,60.00,Wednesday
12,2208571.3461139465
613,17955622.587502835
2,10, 1,10, 0, 6, 0.00,60.00,Wednesday
12,3638050.405972751
613,18554676.67440064
2,10, 1,10, 0, 7, 0.00,60.00,Wednesday
12,3201715.058898538
613,17845136.711051059
2,10, 1,10, 0, 8, 0.00,60.00,Wednesday
12,3682601.2361455045
613,15861267.083684199
2,10, 1,10, 0, 9, 0.00,60.00,Wednesday
12,3333684.7966211785
613,10162707.275482672
2,10, 1,10, 0,10, 0.00,60.00,Wednesday
12,16568936.632177327
613,6508685.441336711
2,10, 1,10, 0,11, 0.00,60.00,Wednesday
12,12617644.495899367
613,3605488.342794428
2,10, 1,10, 0,12, 0.00,60.00,Wednesday
12,3924495.1324858947
613,658045.2058816102
2,10, 1,10, 0,13, 0.00,60.00,Wednesday
12,3036252.4919108918
613,0.0
2,10, 1,10, 0,14, 0.00,60.00,Wednesday
12,3047718.2842482228
613,0.0
2,10, 1,10, 0,15, 0.00,60.00,Wednesday
12,4253715.108084764
613,0.0
2,10, 1,10, 0,16, 0.00,60.00,Wednesday
12,3183476.3071823019
613,0.0
2,10, 1,10, 0,17, 0.00,60.00,Wednesday
12,3778763.8671756165
613,0.0
2,10, 1,10, 0,18, 0.00,60.00,Wednesday
12,4898520.485578269
613,2712065.8693103746
2,10, 1,10, 0,19, 0.00,60.00,Wednesday
12,6604750.509619907
613,5171825.714632957
2,10, 1,10, 0,20, 0.00,60.00,Wednesday
12,15745836.644307606
613,5932140.935545999
2,10, 1,10, 0,21, 0.00,60.00,Wednesday
12,5426694.494131491
613,7012015.1845191209
2,10, 1,10, 0,22, 0.00,60.00,Wednesday
12,4717770.293772132
613,9352988.246863397
2,10, 1,10, 0,23, 0.00,60.00,Wednesday
12,4139147.8435602036
613,11246655.965440954
2,10, 1,10, 0,24, 0.00,60.00,Wednesday
12,4395983.993780362
613,13292215.472679429
2,11, 1,11, 0, 1, 0.00,60.00,Thursday
12,2561778.709542758
613,14711396.337290973
2,11, 1,11, 0, 2, 0.00,60.00,Thursday
12,3548178.994310244
613,16026606.744690266
2,11, 1,11, 0, 3, 0.00,60.00,Thursday
12,2307045.215765553
613,16626489.492214458
2,11, 1,11, 0, 4, 0.00,60.00,Thursday
12,2258827.2763105507
613,17156102.262334218
2,11, 1,11, 0, 5, 0.00,60.00,Thursday
12,2199704.3102800466
613,17538752.625051585
2,11, 1,11, 0, 6, 0.00,60.00,Thursday
12,3608225.1470995175
613,17150435.11141592
2,11, 1,11, 0, 7, 0.00,60.00,Thursday
12,3183980.542830771
613,17011375.893372019
2,11, 1,11, 0, 8, 0.00,60.00,Thursday
12,4884216.321203532
613,15934324.366792547
2,11, 1,11, 0, 9, 0.00,60.00,Thursday
12,14879803.738896681
613,13582692.490612047
2,11, 1,11, 0,10, 0.00,60.00,Thursday
12,4551057.805344631
613,8103385.011013907
2,11, 1,11, 0,11, 0.00,60.00,Thursday
12,4230093.56901739
613,4154319.6175140195
2,11, 1,11, 0,12, 0.00,60.00,Thursday
12,8252608.56268567
613,1746387.5100224375
2,11, 1,11, 0,13, 0.00,60.00,Thursday
12,2856252.4919108918
613,0.0
2,11, 1,11, 0,14, 0.00,60.00,Thursday
12,2867718.2842482228
613,0.0
2,11, 1,11, 0,15, 0.00,60.00,Thursday
12,4132052.47498966
613,0.0
2,11, 1,11, 0,16, 0.00,60.00,Thursday
12,4185642.706950676
613,221250.08846480208
2,11, 1,11, 0,17, 0.00,60.00,Thursday
12,3824157.5379127587
613,2134113.154631906
2,11, 1,11, 0,18, 0.00,60.00,Thursday
12,4896563.605769215
613,2620066.194582201
2,11, 1,11, 0,19, 0.00,60.00,Thursday
12,6474172.892778079
613,2935344.9842912869
2,11, 1,11, 0,20, 0.00,60.00,Thursday
12,7927847.533346076
613,4341406.783808094
2,11, 1,11, 0,21, 0.00,60.00,Thursday
12,5029159.919877603
613,5280117.162269601
2,11, 1,11, 0,22, 0.00,60.00,Thursday
12,4627587.261599915
613,5113172.603889943
2,11, 1,11, 0,23, 0.00,60.00,Thursday
12,5272370.876494239
613,6522816.042311306
2,11, 1,11, 0,24, 0.00,60.00,Thursday
12,3097451.605865934
613,7557845.464787429
2,12, 1,12, 0, 1, 0.00,60.00,Friday
12,2437503.0621578546
613,8868769.169721779
2,12, 1,12, 0, 2, 0.00,60.00,Friday
12,3392280.2354282198
613,10743966.367007854
2,12, 1,12, 0, 3, 0.00,60.00,Friday
12,2204964.045982655
613,11827301.329278736
2,12, 1,12, 0, 4, 0.00,60.00,Friday
12,2181897.591955156
613,13539372.249130099
2,12, 1,12, 0, 5, 0.00,60.00,Friday
12,2144503.5016781718
613,14943572.066384202
2,12, 1,12, 0, 6, 0.00,60.00,Friday
12,6975395.411544762
613,15463664.936334547
2,12, 1,12, 0, 7, 0.00,60.00,Friday
12,12858963.293513839
613,16564678.954639886
2,12, 1,12, 0, 8, 0.00,60.00,Friday
12,3672269.5208267646
613,15375537.482760052
2,12, 1,12, 0, 9, 0.00,60.00,Friday
12,3411926.0007436519
613,13841096.360139505
2,12, 1,12, 0,10, 0.00,60.00,Friday
12,3225049.4365819387
613,12441222.948503528
2,12, 1,12, 0,11, 0.00,60.00,Friday
12,20291047.144983747
613,11592682.544474272
2,12, 1,12, 0,12, 0.00,60.00,Friday
12,15276834.901781198
613,9311967.893722337
2,12, 1,12, 0,13, 0.00,60.00,Friday
12,4530303.347072042
613,8837707.291339003
2,12, 1,12, 0,14, 0.00,60.00,Friday
12,4405054.379822418
613,8126835.47155289
2,12, 1,12, 0,15, 0.00,60.00,Friday
12,3288037.8366910207
613,8004412.801920403
2,12, 1,12, 0,16, 0.00,60.00,Friday
12,3352980.30599184
613,7968968.090658534
2,12, 1,12, 0,17, 0.00,60.00,Friday
12,5115529.19609738
613,9495914.218500745
2,12, 1,12, 0,18, 0.00,60.00,Friday
12,6338385.131476391
613,10084467.897075396
2,12, 1,12, 0,19, 0.00,60.00,Friday
12,6642885.17959349
613,9452204.969419415
2,12, 1,12, 0,20, 0.00,60.00,Friday
12,7002962.095265107
613,9352372.450718688
2,12, 1,12, 0,21, 0.00,60.00,Friday
12,6516325.505604811
613,11023835.488916032
2,12, 1,12, 0,22, 0.00,60.00,Friday
12,7951874.128390631
613,11809654.036308853
2,12, 1,12, 0,23, 0.00,60.00,Friday
12,4163177.420715629
613,12376369.334615054
2,12, 1,12, 0,24, 0.00,60.00,Friday
12,4348775.670747712
613,13033764.68792137
2,13, 1,13, 0, 1, 0.00,60.00,Saturday
12,2518004.275341135
613,12653409.081596015
2,13, 1,13, 0, 2, 0.00,60.00,Saturday
12,4994920.20461219
613,11889865.919818439
2,13, 1,13, 0, 3, 0.00,60.00,Saturday
12,2214693.638766827
613,12284723.071401086
2,13, 1,13, 0, 4, 0.00,60.00,Saturday
12,2158558.4896990747
613,12442120.48840725
2,13, 1,13, 0, 5, 0.00,60.00,Saturday
12,2091005.2026728732
613,12428432.360702267
2,13, 1,13, 0, 6, 0.00,60.00,Saturday
12,18219683.08581252
613,13739182.575846108
2,13, 1,13, 0, 7, 0.00,60.00,Saturday
12,5874636.269812686
613,12933009.1453116
2,13, 1,13, 0, 8, 0.00,60.00,Saturday
12,3559771.120885848
613,10086599.371119122
2,13, 1,13, 0, 9, 0.00,60.00,Saturday
12,3218643.700059352
613,4754228.218621781
2,13, 1,13, 0,10, 0.00,60.00,Saturday
12,5610420.988648521
613,603175.4300137404
2,13, 1,13, 0,11, 0.00,60.00,Saturday
12,3037322.0036349615
613,0.0
2,13, 1,13, 0,12, 0.00,60.00,Saturday
12,5295644.192758896
613,0.0
2,13, 1,13, 0,13, 0.00,60.00,Saturday
12,10644898.713324214
613,0.0
2,13, 1,13, 0,14, 0.00,60.00,Saturday
12,5492623.9744072989
613,0.0
2,13, 1,13, 0,15, 0.00,60.00,Saturday
12,3117779.9108702077
613,0.0
2,13, 1,13, 0,16, 0.00,60.00,Saturday
12,4380559.076149873
613,0.0
2,13, 1,13, 0,17, 0.00,60.00,Saturday
12,3778763.8671756165
613,0.0
2,13, 1,13, 0,18, 0.00,60.00,Saturday
12,7440016.0043092309
613,0.0
2,13, 1,13, 0,19, 0.00,60.00,Saturday
12,10311310.60463303
613,0.0
2,13, 1,13, 0,20, 0.00,60.00,Saturday
12,6374945.6298675299
613,0.0
2,13, 1,13, 0,21, 0.00,60.00,Saturday
12,9043313.308360527
613,0.0
2,13, 1,13, 0,22, 0.00,60.00,Saturday
12,23769914.131852844
613,2131056.935192909
2,13, 1,13, 0,23, 0.00,60.00,Saturday
12,6685399.187937515
613,4331280.71092449
2,13, 1,13, 0,24, 0.00,60.00,Saturday
12,4185336.766409006
613,5075978.39169994
2,14, 1,14, 0, 1, 0.00,60.00,Sunday
12,2356070.6967484296
613,5040352.577475341
2,14, 1,14, 0, 2, 0.00,60.00,Sunday
12,2143474.127036441
613,5383378.557039562
2,14, 1,14, 0, 3, 0.00,60.00,Sunday
12,2080696.3456328037
613,5985047.779259473
2,14, 1,14, 0, 4, 0.00,60.00,Sunday
12,4902656.155315742
613,6972565.035385785
2,14, 1,14, 0, 5, 0.00,60.00,Sunday
12,15213991.246296274
613,8209715.4385189949
2,14, 1,14, 0, 6, 0.00,60.00,Sunday
12,2605578.879236408
613,7866754.623523701
2,14, 1,14, 0, 7, 0.00,60.00,Sunday
12,8265418.784116572
613,8147475.690345861
2,14, 1,14, 0, 8, 0.00,60.00,Sunday
12,4677494.5637080599
613,7416095.996293728
2,14, 1,14, 0, 9, 0.00,60.00,Sunday
12,3214835.838475194
613,4575207.501288139
2,14, 1,14, 0,10, 0.00,60.00,Sunday
12,7305724.728257035
613,2359253.831604868
2,14, 1,14, 0,11, 0.00,60.00,Sunday
12,2915655.4862614728
613,0.0
2,14, 1,14, 0,12, 0.00,60.00,Sunday
12,2932507.89802924
613,0.0
2,14, 1,14, 0,13, 0.00,60.00,Sunday
12,4264786.055727098
613,0.0
2,14, 1,14, 0,14, 0.00,60.00,Sunday
12,2880923.353997593
613,0.0
2,14, 1,14, 0,15, 0.00,60.00,Sunday
12,2937779.9108702077
613,0.0
2,14, 1,14, 0,16, 0.00,60.00,Sunday
12,3003476.3071823019
613,0.0
2,14, 1,14, 0,17, 0.00,60.00,Sunday
12,10178147.90242635
613,0.0
2,14, 1,14, 0,18, 0.00,60.00,Sunday
12,7986390.566407398
613,0.0
2,14, 1,14, 0,19, 0.00,60.00,Sunday
12,5285139.401441467
613,610109.118188657
2,14, 1,14, 0,20, 0.00,60.00,Sunday
12,5180368.702583186
613,1851984.5959877633
2,14, 1,14, 0,21, 0.00,60.00,Sunday
12,4997096.233809931
613,3772692.600390862
2,14, 1,14, 0,22, 0.00,60.00,Sunday
12,5853807.608199185
613,5198312.590064238
2,14, 1,14, 0,23, 0.00,60.00,Sunday
12,5173084.82184889
613,6349187.1805329979
2,14, 1,14, 0,24, 0.00,60.00,Sunday
12,3114250.9556747267
613,8347640.888555007
2,15, 1,15, 0, 1, 0.00,60.00,Monday
12,3584490.29995315
613,9441026.99730275
2,15, 1,15, 0, 2, 0.00,60.00,Monday
12,2258003.9694042608
613,10767821.789454626
2,15, 1,15, 0, 3, 0.00,60.00,Monday
12,2199516.899958939
613,11571212.191836434
2,15, 1,15, 0, 4, 0.00,60.00,Monday
12,2161268.9170507586
613,12569547.034266418
2,15, 1,15, 0, 5, 0.00,60.00,Monday
12,2104320.263948244
613,13054419.353185077
2,15, 1,15, 0, 6, 0.00,60.00,Monday
12,2387212.36139915
613,13098827.139053556
2,15, 1,15, 0, 7, 0.00,60.00,Monday
12,3122347.8191150289
613,14113808.803034533
2,15, 1,15, 0, 8, 0.00,60.00,Monday
12,4764608.705711912
613,12160760.073300563
2,15, 1,15, 0, 9, 0.00,60.00,Monday
12,9674497.947424848
613,5525286.013963066
2,15, 1,15, 0,10, 0.00,60.00,Monday
12,2977971.231892329
613,825223.6629580611
2,15, 1,15, 0,11, 0.00,60.00,Monday
12,2857322.0036349615
613,0.0
2,15, 1,15, 0,12, 0.00,60.00,Monday
12,4081728.536420833
613,0.0
2,15, 1,15, 0,13, 0.00,60.00,Monday
12,4088658.019745347
613,0.0
2,15, 1,15, 0,14, 0.00,60.00,Monday
12,2867718.2842482228
613,0.0
2,15, 1,15, 0,15, 0.00,60.00,Monday
12,4128022.9642535818
613,0.0
2,15, 1,15, 0,16, 0.00,60.00,Monday
12,4518752.707793522
613,0.0
2,15, 1,15, 0,17, 0.00,60.00,Monday
12,3778763.8671756165
613,0.0
2,15, 1,15, 0,18, 0.00,60.00,Monday
12,6283562.790523948
613,0.0
2,15, 1,15, 0,19, 0.00,60.00,Monday
12,14780048.592759777
613,0.0
2,15, 1,15, 0,20, 0.00,60.00,Monday
12,5140976.049584415
613,0.0
2,15, 1,15, 0,21, 0.00,60.00,Monday
12,4916849.146010065
613,0.0
2,15, 1,15, 0,22, 0.00,60.00,Monday
12,5758064.5684039969
613,2389122.496917093
2,15, 1,15, 0,23, 0.00,60.00,Monday
12,4001392.1709940636
613,4770286.282739389
2,15, 1,15, 0,24, 0.00,60.00,Monday
12,3066032.5711715028
613,6080728.189220676
2,16, 1,16, 0, 1, 0.00,60.00,Tuesday
12,2375523.754065226
613,5954907.95146088
2,16, 1,16, 0, 2, 0.00,60.00,Tuesday
12,2176480.168318157
613,6935106.490423006
2,16, 1,16, 0, 3, 0.00,60.00,Tuesday
12,3224367.107770624
613,6401214.732709114
2,16, 1,16, 0, 4, 0.00,60.00,Tuesday
12,2101883.8140744569
613,9777648.353395937
2,16, 1,16, 0, 5, 0.00,60.00,Tuesday
12,2071661.5428128995
613,11519020.138788319
2,16, 1,16, 0, 6, 0.00,60.00,Tuesday
12,2364611.107812729
613,12036264.191252873
2,16, 1,16, 0, 7, 0.00,60.00,Tuesday
12,3082559.9048976579
613,12243241.612768067
2,16, 1,16, 0, 8, 0.00,60.00,Tuesday
12,4790792.018501563
613,11624807.34652091
2,16, 1,16, 0, 9, 0.00,60.00,Tuesday
12,3343027.0347123958
613,10601918.13638925
2,16, 1,16, 0,10, 0.00,60.00,Tuesday
12,5429901.0368178249
613,9777971.290463966
2,16, 1,16, 0,11, 0.00,60.00,Tuesday
12,4742301.689201901
613,8351298.756564835
2,16, 1,16, 0,12, 0.00,60.00,Tuesday
12,3247670.7788273578
613,6354473.591693644
2,16, 1,16, 0,13, 0.00,60.00,Tuesday
12,3136482.137172628
613,4712141.603964662
2,16, 1,16, 0,14, 0.00,60.00,Tuesday
12,3128414.4755506615
613,3793806.506295962
2,16, 1,16, 0,15, 0.00,60.00,Tuesday
12,4311398.438894965
613,2765816.526600094
2,16, 1,16, 0,16, 0.00,60.00,Tuesday