Program Version,EnergyPlus, Version 9.2.0-921312fa1d, YMD=2019.10.18 18:59
1,5,Environment Title[],Latitude[deg],Longitude[deg],Time Zone[],Elevation[m]
2,8,Day of Simulation[],Month[],Day of Month[],DST Indicator[1=yes 0=no],Hour[],StartMinute[],EndMinute[],DayType
3,5,Cumulative Day of Simulation[],Month[],Day of Month[],DST Indicator[1=yes 0=no],DayType  ! When Daily Report Variables Requested
4,2,Cumulative Days of Simulation[],Month[]  ! When Monthly Report Variables Requested
5,1,Cumulative Days of Simulation[] ! When Run Period Report Variables Requested
6,1,Calendar Year of Simulation[] ! When Annual Report Variables Requested
276,9,EMS,central ac supply fan cool disaggregate [J] !Monthly [Value,Min,Day,Hour,Minute,Max,Day,Hour,Minute]
277,11,EMS,central ac supply fan cool disaggregate [J] !RunPeriod [Value,Min,Month,Day,Hour,Minute,Max,Month,Day,Hour,Minute]
278,11,EMS,furnace supply fan heat disaggregate [J] !RunPeriod [Value,Min,Month,Day,Hour,Minute,Max,Month,Day,Hour,Minute]
279,9,EMS,furnace supply fan heat disaggregate [J] !Monthly [Value,Min,Day,Hour,Minute,Max,Day,Hour,Minute]
280,11,EMS,water heater EC adjustment [J] !RunPeriod [Value,Min,Month,Day,Hour,Minute,Max,Month,Day,Hour,Minute]
281,1,LIVING,Zone Mean Air Temperature [C] !Hourly
282,1,UNVENTED ATTIC,Zone Mean Air Temperature [C] !Hourly
283,1,VENTED CRAWLSPACE,Zone Mean Air Temperature [C] !Hourly
585,11,CENTRAL AC CLG COIL,Cooling Coil Electric Energy [J] !RunPeriod [Value,Min,Month,Day,Hour,Minute,Max,Month,Day,Hour,Minute]
611,11,FURNACE HTG COIL,Heating Coil Gas Energy [J] !RunPeriod [Value,Min,Month,Day,Hour,Minute,Max,Month,Day,Hour,Minute]
876,11,WATER USE CONNECTIONS 1,Water Use Connections Plant Hot Water Energy [J] !RunPeriod [Value,Min,Month,Day,Hour,Minute,Max,Month,Day,Hour,Minute]
913,11,WATER HEATER,Water Heater Heat Loss Energy [J] !RunPeriod [Value,Min,Month,Day,Hour,Minute,Max,Month,Day,Hour,Minute]
928,11,WATER HEATER,Water Heater Electric Energy [J] !RunPeriod [Value,Min,Month,Day,Hour,Minute,Max,Month,Day,Hour,Minute]
966,11,WATER HEATER,Water Heater Off Cycle Parasitic Electric Energy [J] !RunPeriod [Value,Min,Month,Day,Hour,Minute,Max,Month,Day,Hour,Minute]
968,11,WATER HEATER,Water Heater On Cycle Parasitic Electric Energy [J] !RunPeriod [Value,Min,Month,Day,Hour,Minute,Max,Month,Day,Hour,Minute]
1131,11,CENTRAL AC CLG COIL,Cooling Coil Crankcase Heater Electric Energy [J] !RunPeriod [Value,Min,Month,Day,Hour,Minute,Max,Month,Day,Hour,Minute]
End of Data Dictionary
1,RUN PERIOD 1,  39.83,-104.65,  -7.00,1650.00
2,1, 1, 1, 0, 1, 0.00,60.00,Monday
281,20.00000000000021
282,-7.727926928452101
283,10.823002140208676
2,1, 1, 1, 0, 2, 0.00,60.00,Monday
281,19.999999999999877
282,-10.302248121429264
283,9.87940981746112
2,1, 1, 1, 0, 3, 0.00,60.00,Monday
281,20.000000000000136
282,-12.37242564307235
283,9.27538903545332
2,1, 1, 1, 0, 4, 0.00,60.00,Monday
281,19.99999999999995
282,-13.868435319770184
283,8.732835862665422
2,1, 1, 1, 0, 5, 0.00,60.00,Monday
281,20.00000000000018
282,-14.85422529421385
283,8.348668295961059
2,1, 1, 1, 0, 6, 0.00,60.00,Monday
281,20.00000000000019
282,-15.315952954031858
283,8.159641745601898
2,1, 1, 1, 0, 7, 0.00,60.00,Monday
281,20.000000000000097
282,-15.373011049868316
283,7.968156002443294
2,1, 1, 1, 0, 8, 0.00,60.00,Monday
281,20.00000000000017
282,-14.636977524927064
283,7.92923509665408
2,1, 1, 1, 0, 9, 0.00,60.00,Monday
281,20.000000000000147
282,-12.820163877867613
283,7.938394223218074
2,1, 1, 1, 0,10, 0.00,60.00,Monday
281,19.999999999999923
282,-10.33145029160798
283,8.346275378501842
2,1, 1, 1, 0,11, 0.00,60.00,Monday
281,20.000000000000015
282,-7.257420686907308
283,8.90331987418202
2,1, 1, 1, 0,12, 0.00,60.00,Monday
281,19.999999999999959
282,-3.6354792861507936
283,9.223968536299472
2,1, 1, 1, 0,13, 0.00,60.00,Monday
281,19.999999999999998
282,-0.704847498854459
283,9.59804986292028
2,1, 1, 1, 0,14, 0.00,60.00,Monday
281,20.000000000000033
282,1.1617137197174672
283,9.541096518496998
2,1, 1, 1, 0,15, 0.00,60.00,Monday
281,20.000000000000047
282,2.2573248040721447
283,9.704028576888823
2,1, 1, 1, 0,16, 0.00,60.00,Monday
281,20.000000000000019
282,2.4825393766090158
283,9.4624571008533
2,1, 1, 1, 0,17, 0.00,60.00,Monday
281,20.000000000000044
282,1.5729108181859879
283,8.919174359266656
2,1, 1, 1, 0,18, 0.00,60.00,Monday
281,20.000000000000044
282,-0.27809089511945836
283,8.508239609887936
2,1, 1, 1, 0,19, 0.00,60.00,Monday
281,20.000000000000008
282,-1.590096298509736
283,7.845584370095916
2,1, 1, 1, 0,20, 0.00,60.00,Monday
281,20.000000000000126
282,-2.964900296028516
283,7.494190117417156
2,1, 1, 1, 0,21, 0.00,60.00,Monday
281,19.99999999999985
282,-4.328932338964127
283,7.170791779152693
2,1, 1, 1, 0,22, 0.00,60.00,Monday
281,20.00000000000012
282,-5.462922557017958
283,6.917968337637251
2,1, 1, 1, 0,23, 0.00,60.00,Monday
281,20.000000000000143
282,-6.166543233060963
283,6.678557477386441
2,1, 1, 1, 0,24, 0.00,60.00,Monday
281,20.000000000000008
282,-6.202496537998449
283,6.639193243795423
2,2, 1, 2, 0, 1, 0.00,60.00,Tuesday
281,19.999999999999976
282,-5.950906855830089
283,6.4485630527682809
2,2, 1, 2, 0, 2, 0.00,60.00,Tuesday
281,20.00000000000015
282,-5.911275895361235
283,6.153055834012953
2,2, 1, 2, 0, 3, 0.00,60.00,Tuesday
281,20.00000000000004
282,-5.950395232315972
283,6.054321651480179
2,2, 1, 2, 0, 4, 0.00,60.00,Tuesday
281,20.000000000000047
282,-6.2039914312970609
283,5.60305122088763
2,2, 1, 2, 0, 5, 0.00,60.00,Tuesday
281,20.000000000000158
282,-6.622239270102886
283,5.5565410306585278
2,2, 1, 2, 0, 6, 0.00,60.00,Tuesday
281,20.000000000000037
282,-7.040450169970798
283,5.327700458769582
2,2, 1, 2, 0, 7, 0.00,60.00,Tuesday
281,20.00000000000007
282,-7.186705999553586
283,5.426176722797901
2,2, 1, 2, 0, 8, 0.00,60.00,Tuesday
281,20.00000000000013
282,-7.13059966768381
283,5.5812261787090799
2,2, 1, 2, 0, 9, 0.00,60.00,Tuesday
281,20.000000000000047
282,-6.324090311209992
283,5.701716860046968
2,2, 1, 2, 0,10, 0.00,60.00,Tuesday
281,20.00000000000001
282,-4.442938672592185
283,6.3491748596690968
2,2, 1, 2, 0,11, 0.00,60.00,Tuesday
281,20.00000000000004
282,-2.1507993061607846
283,7.118191055083706
2,2, 1, 2, 0,12, 0.00,60.00,Tuesday
281,20.0
282,0.9077849669248398
283,8.005161760488406
2,2, 1, 2, 0,13, 0.00,60.00,Tuesday
281,20.000000000000019
282,3.849597727768309
283,8.493497990591317
2,2, 1, 2, 0,14, 0.00,60.00,Tuesday
281,20.0
282,6.353721106285528
283,8.799503074813354
2,2, 1, 2, 0,15, 0.00,60.00,Tuesday
281,20.0
282,8.153745098918885
283,9.218645467100146
2,2, 1, 2, 0,16, 0.00,60.00,Tuesday
281,20.000000000000015
282,8.415023633109176
283,8.944323664130643
2,2, 1, 2, 0,17, 0.00,60.00,Tuesday
281,20.000000000000037
282,7.540480129326071
283,8.822926046696664
2,2, 1, 2, 0,18, 0.00,60.00,Tuesday
281,20.00000000000002
282,5.790742994909184
283,8.526194136634884
2,2, 1, 2, 0,19, 0.00,60.00,Tuesday
281,20.000000000000094
282,4.191974588898482
283,7.68570111434492
2,2, 1, 2, 0,20, 0.00,60.00,Tuesday
281,20.000000000000087
282,2.514118168491652
283,7.356415940691738
2,2, 1, 2, 0,21, 0.00,60.00,Tuesday
281,20.000000000000055
282,0.9331460584092478
283,6.91094472660006
2,2, 1, 2, 0,22, 0.00,60.00,Tuesday
281,20.000000000000069
282,-0.41327146871979505
283,6.856354969460404
2,2, 1, 2, 0,23, 0.00,60.00,Tuesday
281,19.999999999999998
282,-1.696850834226189
283,7.032804569042803
2,2, 1, 2, 0,24, 0.00,60.00,Tuesday
281,20.0
282,-2.460039844360483
283,6.839549180883758
2,3, 1, 3, 0, 1, 0.00,60.00,Wednesday
281,20.0
282,-2.761373552765996
283,6.613324060921618
2,3, 1, 3, 0, 2, 0.00,60.00,Wednesday
281,19.999999999999884
282,-2.842919294659364
283,6.4961790660470559
2,3, 1, 3, 0, 3, 0.00,60.00,Wednesday
281,20.000000000000055
282,-2.914305571870535
283,6.291218721739468
2,3, 1, 3, 0, 4, 0.00,60.00,Wednesday
281,20.000000000000108
282,-3.0815659130615935
283,6.053563145706642
2,3, 1, 3, 0, 5, 0.00,60.00,Wednesday
281,20.00000000000002
282,-3.252354984872549
283,5.912902869210887
2,3, 1, 3, 0, 6, 0.00,60.00,Wednesday
281,20.0
282,-3.213408718261845
283,5.895007913700992
2,3, 1, 3, 0, 7, 0.00,60.00,Wednesday
281,20.000000000000129
282,-3.051849114109219
283,5.791164117985568
2,3, 1, 3, 0, 8, 0.00,60.00,Wednesday
281,20.00000000000013
282,-2.772052786257006
283,5.777264067561631
2,3, 1, 3, 0, 9, 0.00,60.00,Wednesday
281,20.000000000000104
282,-1.818723164976778
283,6.393719137286916
2,3, 1, 3, 0,10, 0.00,60.00,Wednesday
281,20.0
282,-0.198032989367102
283,6.921176892581185
2,3, 1, 3, 0,11, 0.00,60.00,Wednesday
281,20.00000000000006
282,1.515972061527661
283,7.1824789645670059
2,3, 1, 3, 0,12, 0.00,60.00,Wednesday
281,20.00000000000003
282,3.0085291261692639
283,7.495565716316908
2,3, 1, 3, 0,13, 0.00,60.00,Wednesday
281,20.00000000000002
282,4.029180470349779
283,7.4855273357497549
2,3, 1, 3, 0,14, 0.00,60.00,Wednesday
281,20.000000000000005
282,4.452805729785601
283,7.414810398203343
2,3, 1, 3, 0,15, 0.00,60.00,Wednesday
281,20.000000000000019
282,4.248228095361066
283,7.0063838762190289
2,3, 1, 3, 0,16, 0.00,60.00,Wednesday
281,19.999999999999987
282,3.3499239320910347
283,6.503201706656229
2,3, 1, 3, 0,17, 0.00,60.00,Wednesday
281,20.000000000000097
282,1.8352942455593054
283,5.937124343869963
2,3, 1, 3, 0,18, 0.00,60.00,Wednesday
281,20.000000000000136
282,-0.21674089737579683
283,5.2883364285602429
2,3, 1, 3, 0,19, 0.00,60.00,Wednesday
281,19.99999999999993
282,-2.1139972314668604
283,5.108911249361449
2,3, 1, 3, 0,20, 0.00,60.00,Wednesday
281,20.00000000000011
282,-3.8382375837876645
283,4.6359614165276679
2,3, 1, 3, 0,21, 0.00,60.00,Wednesday
281,20.000000000000143
282,-5.4797648609622719
283,4.13312309829389
2,3, 1, 3, 0,22, 0.00,60.00,Wednesday
281,19.99999999999995
282,-6.922557136777099
283,3.7026089310782699
2,3, 1, 3, 0,23, 0.00,60.00,Wednesday
281,20.000000000000154
282,-8.25082003353883
283,3.1990887808695764
2,3, 1, 3, 0,24, 0.00,60.00,Wednesday
281,19.999999999999944
282,-9.344870208648385
283,2.78134750767613
2,4, 1, 4, 0, 1, 0.00,60.00,Thursday
281,20.00000000000011
282,-10.401833436868499
283,2.3375020957441916
2,4, 1, 4, 0, 2, 0.00,60.00,Thursday
281,20.000000000000207
282,-11.648863724780549
283,1.6123656884434328
2,4, 1, 4, 0, 3, 0.00,60.00,Thursday
281,20.000000000000097
282,-12.849812651271316
283,1.296697307648947
2,4, 1, 4, 0, 4, 0.00,60.00,Thursday
281,20.000000000000008
282,-13.72202264120163
283,1.2634326352313244
2,4, 1, 4, 0, 5, 0.00,60.00,Thursday
281,20.000000000000005
282,-14.375891493530764
283,1.10124068711019
2,4, 1, 4, 0, 6, 0.00,60.00,Thursday
281,20.000000000000076
282,-14.892368239076337
283,1.0347382562138084
2,4, 1, 4, 0, 7, 0.00,60.00,Thursday
281,19.999999999999873
282,-15.508012224996659
283,1.0983964438682326
2,4, 1, 4, 0, 8, 0.00,60.00,Thursday
281,19.99999999999999
282,-15.81417524510535
283,1.4076959005185142
2,4, 1, 4, 0, 9, 0.00,60.00,Thursday
281,20.000000000000094
282,-15.188081513586786
283,1.8786467782729513
2,4, 1, 4, 0,10, 0.00,60.00,Thursday
281,19.99999999999986
282,-12.6874067087042
283,2.8174524968790495
2,4, 1, 4, 0,11, 0.00,60.00,Thursday
281,19.999999999999909
282,-8.389344975564257
283,3.696813766275571
2,4, 1, 4, 0,12, 0.00,60.00,Thursday
281,19.999999999999994
282,-3.349403366473414
283,4.065124146865762
2,4, 1, 4, 0,13, 0.00,60.00,Thursday
281,19.999999999999909
282,0.8185959089639765
283,5.102895596478364
2,4, 1, 4, 0,14, 0.00,60.00,Thursday
281,20.000000000000079
282,3.874791172468637
283,5.889722588016764
2,4, 1, 4, 0,15, 0.00,60.00,Thursday
281,20.00000000000003
282,6.082922804192026
283,6.538934110186001
2,4, 1, 4, 0,16, 0.00,60.00,Thursday
281,20.000000000000079
282,7.2347598035469649
283,6.7068521439680179
2,4, 1, 4, 0,17, 0.00,60.00,Thursday
281,20.000000000000058
282,6.9394640923925
283,6.354777883251125
2,4, 1, 4, 0,18, 0.00,60.00,Thursday
281,19.999999999999976
282,6.098772555862741
283,6.3990239966176249
2,4, 1, 4, 0,19, 0.00,60.00,Thursday
281,20.000000000000076
282,5.305582116027168
283,6.276298036649104
2,4, 1, 4, 0,20, 0.00,60.00,Thursday
281,20.0
282,4.760011421322296
283,6.5740888172527029
2,4, 1, 4, 0,21, 0.00,60.00,Thursday
281,20.00000000000001
282,4.3668387538389139
283,6.42574660661205
2,4, 1, 4, 0,22, 0.00,60.00,Thursday
281,20.000000000000058
282,3.9177848120599365
283,6.330997066560796
2,4, 1, 4, 0,23, 0.00,60.00,Thursday
281,19.999999999999944
282,3.381035112560772
283,6.229866914550835
2,4, 1, 4, 0,24, 0.00,60.00,Thursday
281,20.000000000000069
282,3.732152385352165
283,7.298133413467104
2,5, 1, 5, 0, 1, 0.00,60.00,Friday
281,20.00000000000004
282,3.8783239605091395
283,6.503500394311872
2,5, 1, 5, 0, 2, 0.00,60.00,Friday
281,20.00000000000008
282,4.269075166182014
283,7.525455979925194
2,5, 1, 5, 0, 3, 0.00,60.00,Friday
281,20.000000000000055
282,5.210683796230539
283,8.06261161705978
2,5, 1, 5, 0, 4, 0.00,60.00,Friday
281,20.000000000000033
282,5.82496448868218
283,7.830735132239803
2,5, 1, 5, 0, 5, 0.00,60.00,Friday
281,20.000000000000087
282,5.836143019272247
283,7.823101914734585
2,5, 1, 5, 0, 6, 0.00,60.00,Friday
281,19.999999999999969
282,5.746354628966548
283,7.92593978653078
2,5, 1, 5, 0, 7, 0.00,60.00,Friday
281,19.999999999999976
282,5.257537611671161
283,6.608488874612224
2,5, 1, 5, 0, 8, 0.00,60.00,Friday
281,19.999999999999944
282,4.774035302403262
283,7.747474238539107
2,5, 1, 5, 0, 9, 0.00,60.00,Friday
281,20.0
282,5.028126511971838
283,7.994532675146803
2,5, 1, 5, 0,10, 0.00,60.00,Friday
281,20.34982210720647
282,6.224051698302684
283,9.20477078872737
2,5, 1, 5, 0,11, 0.00,60.00,Friday
281,20.467004045179939
282,7.779394542132557
283,9.379641990843665
2,5, 1, 5, 0,12, 0.00,60.00,Friday
281,21.12205249164529
282,9.53200837706744
283,10.067046159304033
2,5, 1, 5, 0,13, 0.00,60.00,Friday
281,21.540860644786777
282,10.991778519847893
283,10.30084954066242
2,5, 1, 5, 0,14, 0.00,60.00,Friday
281,21.74141119130209
282,11.482697975007135
283,10.293781298114876
2,5, 1, 5, 0,15, 0.00,60.00,Friday
281,21.75775406790365
282,11.003999495911162
283,9.966898115912502
2,5, 1, 5, 0,16, 0.00,60.00,Friday
281,21.692830038970035
282,9.708281809990817
283,9.567277190700793
2,5, 1, 5, 0,17, 0.00,60.00,Friday
281,21.19518032990248
282,8.336992865924616
283,8.92007917047037
2,5, 1, 5, 0,18, 0.00,60.00,Friday
281,20.797393333756028
282,6.893497325970885
283,8.795893314671812
2,5, 1, 5, 0,19, 0.00,60.00,Friday
281,20.487736731113907
282,5.562137295266324
283,8.269666802701348
2,5, 1, 5, 0,20, 0.00,60.00,Friday
281,20.18906292655492
282,4.406606781464736
283,7.953695789141661
2,5, 1, 5, 0,21, 0.00,60.00,Friday
281,20.001403521517124
282,3.340103811439084
283,7.441525851341697
2,5, 1, 5, 0,22, 0.00,60.00,Friday
281,20.000027805286768
282,2.1568178600122969
283,6.915184188007345
2,5, 1, 5, 0,23, 0.00,60.00,Friday
281,20.000000814351894
282,1.0277135168240297
283,6.807356234780551
2,5, 1, 5, 0,24, 0.00,60.00,Friday
281,20.000000034315076
282,0.20120372027269105
283,6.522483297739035
2,6, 1, 6, 0, 1, 0.00,60.00,Saturday
281,20.000000001563977
282,-0.19834107784209213
283,6.330226215724358
2,6, 1, 6, 0, 2, 0.00,60.00,Saturday
281,20.000000000069634
282,-0.23847186056013704
283,6.377680538023949
2,6, 1, 6, 0, 3, 0.00,60.00,Saturday
281,20.000000000003437
282,-0.2595719977157622
283,6.1689396881770259
2,6, 1, 6, 0, 4, 0.00,60.00,Saturday
281,20.0000000000001
282,-0.4338594894317449
283,5.922278922387494
2,6, 1, 6, 0, 5, 0.00,60.00,Saturday
281,19.999999999999927
282,-1.0713424051583629
283,5.68222587252306
2,6, 1, 6, 0, 6, 0.00,60.00,Saturday
281,20.00000000000013
282,-1.7541709064508416
283,5.6728639770518509
2,6, 1, 6, 0, 7, 0.00,60.00,Saturday
281,20.000000000000037
282,-2.0845031760936427
283,5.457489056537144
2,6, 1, 6, 0, 8, 0.00,60.00,Saturday
281,19.999999999999895
282,-2.168875323897057
283,5.329616431016211
2,6, 1, 6, 0, 9, 0.00,60.00,Saturday
281,19.999999999999998
282,-2.0383334494939278
283,5.239694029936755
2,6, 1, 6, 0,10, 0.00,60.00,Saturday
281,20.0
282,-1.4380486870787038
283,5.293718543409954
2,6, 1, 6, 0,11, 0.00,60.00,Saturday
281,20.0
282,-1.0315184616723854
283,5.290238569554696
2,6, 1, 6, 0,12, 0.00,60.00,Saturday
281,19.999999999999987
282,-0.6084668559862647
283,5.511483405800049
2,6, 1, 6, 0,13, 0.00,60.00,Saturday
281,19.999999999999998
282,0.12212161455317465
283,5.714536779686497
2,6, 1, 6, 0,14, 0.00,60.00,Saturday
281,20.0
282,0.6172194918568534
283,5.698882791834756
2,6, 1, 6, 0,15, 0.00,60.00,Saturday
281,20.102435758251489
282,0.7875947530772102
283,5.893080415299631
2,6, 1, 6, 0,16, 0.00,60.00,Saturday
281,20.049513326102557
282,0.6660276617821139
283,5.774541830621523
2,6, 1, 6, 0,17, 0.00,60.00,Saturday
281,20.000943123813888
282,0.145782743309334
283,5.546448584540981
2,6, 1, 6, 0,18, 0.00,60.00,Saturday
281,20.000032585256478
282,-0.7163123463443885
283,5.281274044099656
2,6, 1, 6, 0,19, 0.00,60.00,Saturday
281,20.000001692939013
282,-1.7947755142630165
283,4.86596303970885
2,6, 1, 6, 0,20, 0.00,60.00,Saturday
281,20.00000009184715
282,-2.8003050005998229
283,4.4986773249039129
2,6, 1, 6, 0,21, 0.00,60.00,Saturday
281,20.00000000514084
282,-3.930014912098454
283,4.008012170135065
2,6, 1, 6, 0,22, 0.00,60.00,Saturday
281,20.00000000032734
282,-5.073521273706519
283,3.4924551248942747
2,6, 1, 6, 0,23, 0.00,60.00,Saturday
281,20.000000000021726
282,-5.931416916402541
283,3.2556092940311167
2,6, 1, 6, 0,24, 0.00,60.00,Saturday
281,20.000000000001607
282,-6.633549208525048
283,2.8571924535759098
2,7, 1, 7, 0, 1, 0.00,60.00,Sunday
281,20.00000000000015
282,-7.219436227806674
283,2.6430726030418465
2,7, 1, 7, 0, 2, 0.00,60.00,Sunday
281,20.000000000000165
282,-7.624450804276777
283,2.5624668011039768
2,7, 1, 7, 0, 3, 0.00,60.00,Sunday
281,20.000000000000186
282,-8.166434422773844
283,1.9924902924202928
2,7, 1, 7, 0, 4, 0.00,60.00,Sunday
281,20.000000000000193
282,-9.038927304779673
283,1.4926363165663799
2,7, 1, 7, 0, 5, 0.00,60.00,Sunday
281,20.00000000000009
282,-10.19130911449515
283,0.9620041793622335
2,7, 1, 7, 0, 6, 0.00,60.00,Sunday
281,20.00000000000038
282,-11.026795450557114
283,0.8931803919748446
2,7, 1, 7, 0, 7, 0.00,60.00,Sunday
281,20.00000000000004
282,-11.522395322375564
283,0.6901240823918818
2,7, 1, 7, 0, 8, 0.00,60.00,Sunday
281,20.00000000000015
282,-10.596332684516544
283,2.114915572136255
2,7, 1, 7, 0, 9, 0.00,60.00,Sunday
281,20.00000000000015
282,-8.389600593767272
283,2.6658198500449408
2,7, 1, 7, 0,10, 0.00,60.00,Sunday
281,19.999999999999959
282,-5.895675926644432
283,3.0389603444328174
2,7, 1, 7, 0,11, 0.00,60.00,Sunday
281,20.000000000000119
282,-3.3388769633145345
283,3.4943544936095
2,7, 1, 7, 0,12, 0.00,60.00,Sunday
281,20.000000000000115
282,-0.6747972669923442
283,4.0953870511042889
2,7, 1, 7, 0,13, 0.00,60.00,Sunday
281,20.000000000000008
282,1.6623272069985109
283,4.459722071997061
2,7, 1, 7, 0,14, 0.00,60.00,Sunday
281,19.99999999999996
282,3.293277878328353
283,4.524759866527183
2,7, 1, 7, 0,15, 0.00,60.00,Sunday
281,20.000000000000044
282,4.132747472625021
283,4.6773765590303679
2,7, 1, 7, 0,16, 0.00,60.00,Sunday
281,19.99999999999995
282,4.288696581802434
283,4.693576987921671
2,7, 1, 7, 0,17, 0.00,60.00,Sunday
281,19.999999999999934
282,4.118306614083715
283,4.914799734328664
2,7, 1, 7, 0,18, 0.00,60.00,Sunday
281,19.999999999999998
282,3.837416116542697
283,5.166479304888256
2,7, 1, 7, 0,19, 0.00,60.00,Sunday
281,20.00000000000004
282,3.644176997840529
283,5.130669171012312
2,7, 1, 7, 0,20, 0.00,60.00,Sunday
281,20.000000000000094
282,3.4208972261263486
283,5.051452738342582
2,7, 1, 7, 0,21, 0.00,60.00,Sunday
281,20.000000000000005
282,2.8900085728731117
283,4.610686268108547
2,7, 1, 7, 0,22, 0.00,60.00,Sunday
281,19.999999999999934
282,1.7801612856144423
283,4.019593224428312
2,7, 1, 7, 0,23, 0.00,60.00,Sunday
281,20.00000000000016
282,0.712097358521922
283,4.0559633656014519
2,7, 1, 7, 0,24, 0.00,60.00,Sunday
281,20.000000000000044
282,0.3639151310752495
283,4.345364143729369
2,8, 1, 8, 0, 1, 0.00,60.00,Monday
281,20.000000000000115
282,0.4483569134309387
283,4.343495703228147
2,8, 1, 8, 0, 2, 0.00,60.00,Monday
281,20.000000000000008
282,0.5125642513842141
283,4.202600253433703
2,8, 1, 8, 0, 3, 0.00,60.00,Monday
281,20.00000000000008
282,0.2624993936170485
283,3.8431026575665125
2,8, 1, 8, 0, 4, 0.00,60.00,Monday
281,20.00000000000027
282,-0.20054681252058985
283,3.565326471342669
2,8, 1, 8, 0, 5, 0.00,60.00,Monday
281,19.99999999999994
282,-0.8803920429245248
283,3.178639571941203
2,8, 1, 8, 0, 6, 0.00,60.00,Monday
281,19.999999999999969
282,-1.7161148598176428
283,3.05784292256223
2,8, 1, 8, 0, 7, 0.00,60.00,Monday
281,20.000000000000047
282,-2.611650129384424
283,2.7542182242180899
2,8, 1, 8, 0, 8, 0.00,60.00,Monday
281,20.000000000000257
282,-3.264764825904317
283,2.9109699319027535
2,8, 1, 8, 0, 9, 0.00,60.00,Monday
281,19.999999999999948
282,-2.6555051369263165
283,3.7853753354158896
2,8, 1, 8, 0,10, 0.00,60.00,Monday
281,20.0
282,-1.1429122922373863
283,4.560012890251425
2,8, 1, 8, 0,11, 0.00,60.00,Monday
281,20.000000000000008
282,0.9155919394459656
283,5.356927368373426
2,8, 1, 8, 0,12, 0.00,60.00,Monday
281,19.999999999999998
282,3.0541434211653368
283,5.972342025559648
2,8, 1, 8, 0,13, 0.00,60.00,Monday
281,20.329178349590035
282,5.208676632529452
283,7.003925684261352
2,8, 1, 8, 0,14, 0.00,60.00,Monday
281,20.69550854557271
282,6.587086346323331
283,7.342199969172885
2,8, 1, 8, 0,15, 0.00,60.00,Monday
281,20.945775004854455
282,6.883119558104158
283,7.070978539496113
2,8, 1, 8, 0,16, 0.00,60.00,Monday
281,21.115224064148799
282,6.190567227461784
283,6.9006734171561929
2,8, 1, 8, 0,17, 0.00,60.00,Monday
281,20.607419095799206
282,5.134931976407003
283,6.480245710144764
2,8, 1, 8, 0,18, 0.00,60.00,Monday
281,20.005017920797056
282,3.717470823567505
283,5.458348823115938
2,8, 1, 8, 0,19, 0.00,60.00,Monday
281,20.000120940410534
282,2.2189609738701128
283,5.1969361423648279
2,8, 1, 8, 0,20, 0.00,60.00,Monday
281,20.000003985132435
282,0.9825686051955288
283,4.850286039998167
2,8, 1, 8, 0,21, 0.00,60.00,Monday
281,20.000000163786657
282,0.009098859544707926
283,4.771752171177875
2,8, 1, 8, 0,22, 0.00,60.00,Monday
281,20.00000000800987
282,-0.754449393330914
283,4.413696180907247
2,8, 1, 8, 0,23, 0.00,60.00,Monday
281,20.00000000038052
282,-1.3849878601611772
283,4.332446008882453
2,8, 1, 8, 0,24, 0.00,60.00,Monday
281,20.000000000020618
282,-1.9165737990533858
283,3.9925563199510925
2,9, 1, 9, 0, 1, 0.00,60.00,Tuesday
281,20.000000000001397
282,-2.5463027692760895
283,3.737636456312272
2,9, 1, 9, 0, 2, 0.00,60.00,Tuesday
281,20.00000000000022
282,-3.133476185575395
283,3.5901244397633298
2,9, 1, 9, 0, 3, 0.00,60.00,Tuesday
281,20.000000000000069
282,-3.575268726294853
283,3.4606635827386107
2,9, 1, 9, 0, 4, 0.00,60.00,Tuesday
281,20.00000000000007
282,-3.9077364801606677
283,3.3380715308523487
2,9, 1, 9, 0, 5, 0.00,60.00,Tuesday
281,20.000000000000055
282,-4.300201008844129
283,3.1083148549732897
2,9, 1, 9, 0, 6, 0.00,60.00,Tuesday
281,20.0
282,-4.612798070431081
283,3.086286894286772
2,9, 1, 9, 0, 7, 0.00,60.00,Tuesday
281,20.000000000000143
282,-5.541342155730114
283,2.678949463761512
2,9, 1, 9, 0, 8, 0.00,60.00,Tuesday
281,20.00000000000004
282,-5.870245618679249
283,3.219565379803443
2,9, 1, 9, 0, 9, 0.00,60.00,Tuesday
281,19.999999999999998
282,-5.144114610769729
283,3.5857710198416696
2,9, 1, 9, 0,10, 0.00,60.00,Tuesday
281,20.000000000000026
282,-3.6749449227556165
283,4.0883515021483369
2,9, 1, 9, 0,11, 0.00,60.00,Tuesday
281,20.000000000000055
282,-1.9881799849638867
283,4.522142193026262
2,9, 1, 9, 0,12, 0.00,60.00,Tuesday
281,20.000000000000015
282,-0.38704738414228
283,4.610930501373959
2,9, 1, 9, 0,13, 0.00,60.00,Tuesday
281,20.000000000000015
282,0.9234558624349382
283,4.757405767244115
2,9, 1, 9, 0,14, 0.00,60.00,Tuesday
281,20.017717783174438
282,1.735843253123597
283,5.077051017383159
2,9, 1, 9, 0,15, 0.00,60.00,Tuesday
281,20.27591602489564
282,2.2094566497748517
283,5.422427937249918
2,9, 1, 9, 0,16, 0.00,60.00,Tuesday
281,20.322701392062354
282,2.3834690268285776
283,5.517280493371636
2,9, 1, 9, 0,17, 0.00,60.00,Tuesday
281,20.00190918225955
282,2.0712899300191927
283,5.354423045860507
2,9, 1, 9, 0,18, 0.00,60.00,Tuesday
281,20.00004890259832
282,1.2528251532086748
283,4.976320559789816
2,9, 1, 9, 0,19, 0.00,60.00,Tuesday
281,20.00000174434914
282,0.33124941609865779
283,4.712385498597236
2,9, 1, 9, 0,20, 0.00,60.00,Tuesday
281,20.000000070741579
282,-0.3191278301321013
283,4.740133403784409
2,9, 1, 9, 0,21, 0.00,60.00,Tuesday
281,20.000000003313969
282,-1.0031539239051708
283,4.191522189687827
2,9, 1, 9, 0,22, 0.00,60.00,Tuesday
281,20.000000000161376
282,-1.6907025182962419
283,4.0445339778181819
2,9, 1, 9, 0,23, 0.00,60.00,Tuesday
281,20.000000000008698
282,-2.3655824343184568
283,3.718382757530003
2,9, 1, 9, 0,24, 0.00,60.00,Tuesday
281,20.00000000000062
282,-3.167598587674852
283,3.264210875772726
2,10, 1,10, 0, 1, 0.00,60.00,Wednesday
281,20.00000000000013
282,-3.9160801600824408
283,3.096322660162048
2,10, 1,10, 0, 2, 0.00,60.00,Wednesday
281,19.99999999999987
282,-4.5762074864181578
283,2.8403805422352339
2,10, 1,10, 0, 3, 0.00,60.00,Wednesday
281,20.000000000000165
282,-5.179510946079243
283,2.6896831275039365
2,10, 1,10, 0, 4, 0.00,60.00,Wednesday
281,20.00000000000016
282,-5.685966918590858
283,2.444430742359037
2,10, 1,10, 0, 5, 0.00,60.00,Wednesday
281,19.99999999999987
282,-6.134028648896491
283,2.204168561337705
2,10, 1,10, 0, 6, 0.00,60.00,Wednesday
281,20.000000000000097
282,-6.649733013989021
283,1.9482554519391043
2,10, 1,10, 0, 7, 0.00,60.00,Wednesday
281,20.00000000000016
282,-7.026435588939705
283,1.9858428499322103
2,10, 1,10, 0, 8, 0.00,60.00,Wednesday
281,20.000000000000119
282,-7.057098368246038
283,1.991140347219598
2,10, 1,10, 0, 9, 0.00,60.00,Wednesday
281,20.000000000000094
282,-6.378367354151486
283,2.5105252788665957
2,10, 1,10, 0,10, 0.00,60.00,Wednesday
281,19.99999999999996
282,-4.9212051507970229
283,3.2418634521747817
2,10, 1,10, 0,11, 0.00,60.00,Wednesday
281,20.000000000000037
282,-3.055772888185343
283,4.02551009389976
2,10, 1,10, 0,12, 0.00,60.00,Wednesday
281,19.999999999999994
282,-0.9814591752994031
283,4.78644011046253
2,10, 1,10, 0,13, 0.00,60.00,Wednesday
281,20.193939081954768
282,0.8329616459271196
283,5.66372133495982
2,10, 1,10, 0,14, 0.00,60.00,Wednesday
281,20.366973758724617
282,1.998063910628469
283,5.95521113322112
2,10, 1,10, 0,15, 0.00,60.00,Wednesday
281,20.683561593906526
282,2.1369260552984179
283,6.096017030521495
2,10, 1,10, 0,16, 0.00,60.00,Wednesday
281,20.836379587885568
282,2.0904603968157149
283,6.181018074614146
2,10, 1,10, 0,17, 0.00,60.00,Wednesday
281,20.361449534340254
282,1.7984997689858966
283,5.634083015490634
2,10, 1,10, 0,18, 0.00,60.00,Wednesday
281,20.005235214275996
282,0.8695021429767574
283,4.911868176534728
2,10, 1,10, 0,19, 0.00,60.00,Wednesday
281,20.000149239498005
282,-0.27483256376746176
283,4.554360427800695
2,10, 1,10, 0,20, 0.00,60.00,Wednesday
281,20.000005348273878
282,-1.3698191726714282
283,4.213640797110638
2,10, 1,10, 0,21, 0.00,60.00,Wednesday
281,20.000000243157034
282,-2.1465908682701517
283,4.25196020201449
2,10, 1,10, 0,22, 0.00,60.00,Wednesday
281,20.000000012529939
282,-2.814741722441304
283,3.6981871511155486
2,10, 1,10, 0,23, 0.00,60.00,Wednesday
281,20.000000000704
282,-3.650205523434517
283,3.3005110777506978
2,10, 1,10, 0,24, 0.00,60.00,Wednesday
281,20.000000000044016
282,-4.386160159993438
283,3.018215933809268
2,11, 1,11, 0, 1, 0.00,60.00,Thursday
281,20.00000000000286
282,-5.034638471594658
283,2.718622772506151
2,11, 1,11, 0, 2, 0.00,60.00,Thursday
281,20.000000000000346
282,-5.66662267239468
283,2.439231299599332
2,11, 1,11, 0, 3, 0.00,60.00,Thursday
281,20.000000000000143
282,-6.241069211400156
283,2.268941588979237
2,11, 1,11, 0, 4, 0.00,60.00,Thursday
281,20.00000000000001
282,-6.565140957918409
283,2.210203076109497
2,11, 1,11, 0, 5, 0.00,60.00,Thursday
281,20.000000000000005
282,-6.606242457983085
283,2.1778236976977238
2,11, 1,11, 0, 6, 0.00,60.00,Thursday
281,20.000000000000033
282,-6.428933668200697
283,2.2613040403507944
2,11, 1,11, 0, 7, 0.00,60.00,Thursday
281,20.000000000000008
282,-6.188567756850661
283,2.1787967592138348
2,11, 1,11, 0, 8, 0.00,60.00,Thursday
281,20.000000000000008
282,-5.856258778432425
283,2.1987676818637365
2,11, 1,11, 0, 9, 0.00,60.00,Thursday
281,20.000000000000005
282,-5.066694914779099
283,2.4445790692483495
2,11, 1,11, 0,10, 0.00,60.00,Thursday
281,20.00000000000005
282,-3.7644643477630206
283,3.00853873618113
2,11, 1,11, 0,11, 0.00,60.00,Thursday
281,19.999999999999966
282,-1.7431776755702553
283,4.389403928452448
2,11, 1,11, 0,12, 0.00,60.00,Thursday
281,20.00000000000002
282,0.744168660647778
283,5.248139586192895
2,11, 1,11, 0,13, 0.00,60.00,Thursday
281,20.120688154586238
282,3.7598302499167826
283,6.200466535162714
2,11, 1,11, 0,14, 0.00,60.00,Thursday
281,20.415776650160227
282,6.402683664086127
283,6.827006673732118
2,11, 1,11, 0,15, 0.00,60.00,Thursday
281,20.327374187636985
282,8.18558843195607
283,7.3166771455829588
2,11, 1,11, 0,16, 0.00,60.00,Thursday
281,20.00043026015728
282,8.92808246926795
283,7.2280949751670529
2,11, 1,11, 0,17, 0.00,60.00,Thursday
281,20.00000527049017
282,8.489564639794145
283,7.0243380422870349
2,11, 1,11, 0,18, 0.00,60.00,Thursday
281,20.000000088105709
282,7.301661415239408
283,6.974378797408029
2,11, 1,11, 0,19, 0.00,60.00,Thursday
281,20.000000001843163
282,6.436058065268922
283,6.8455682715288799
2,11, 1,11, 0,20, 0.00,60.00,Thursday
281,20.000000000049167
282,5.639774784695729
283,6.40383174740119
2,11, 1,11, 0,21, 0.00,60.00,Thursday
281,20.000000000001454
282,4.813621514879082
283,6.0061761206349539
2,11, 1,11, 0,22, 0.00,60.00,Thursday
281,20.000000000000055
282,4.41283905151729
283,6.382518028558992
2,11, 1,11, 0,23, 0.00,60.00,Thursday
281,20.000000000000087
282,4.164391776421868
283,5.939981210071946
2,11, 1,11, 0,24, 0.00,60.00,Thursday
281,19.999999999999976
282,3.8317907694640147
283,5.658396376779433
2,12, 1,12, 0, 1, 0.00,60.00,Friday
281,20.00000000000007
282,3.379762050343017