Program Version,EnergyPlus, Version 9.1.0-fafb9d5652, YMD=2019.09.26 13:40
1,5,Environment Title[],Latitude[deg],Longitude[deg],Time Zone[],Elevation[m]
2,8,Day of Simulation[],Month[],Day of Month[],DST Indicator[1=yes 0=no],Hour[],StartMinute[],EndMinute[],DayType
3,5,Cumulative Day of Simulation[],Month[],Day of Month[],DST Indicator[1=yes 0=no],DayType  ! When Daily Report Variables Requested
4,2,Cumulative Days of Simulation[],Month[]  ! When Monthly Report Variables Requested
5,1,Cumulative Days of Simulation[] ! When Run Period Report Variables Requested
6,1,Calendar Year of Simulation[] ! When Annual Report Variables Requested
276,11,EMS,central ac supply fan Cooling [J] !RunPeriod [Value,Min,Month,Day,Hour,Minute,Max,Month,Day,Hour,Minute]
277,11,EMS,furnace supply fan Heating [J] !RunPeriod [Value,Min,Month,Day,Hour,Minute,Max,Month,Day,Hour,Minute]
278,11,EMS,water heater EC adjustment [J] !RunPeriod [Value,Min,Month,Day,Hour,Minute,Max,Month,Day,Hour,Minute]
279,1,LIVING,Zone Mean Air Temperature [C] !Hourly
280,1,UNVENTED ATTIC,Zone Mean Air Temperature [C] !Hourly
281,1,VENTED CRAWLSPACE,Zone Mean Air Temperature [C] !Hourly
583,11,CENTRAL AC CLG COIL,Cooling Coil Electric Energy [J] !RunPeriod [Value,Min,Month,Day,Hour,Minute,Max,Month,Day,Hour,Minute]
609,11,FURNACE HTG COIL,Heating Coil Gas Energy [J] !RunPeriod [Value,Min,Month,Day,Hour,Minute,Max,Month,Day,Hour,Minute]
874,11,WATER USE CONNECTIONS 1,Water Use Connections Plant Hot Water Energy [J] !RunPeriod [Value,Min,Month,Day,Hour,Minute,Max,Month,Day,Hour,Minute]
925,11,WATER HEATER,Water Heater Electric Energy [J] !RunPeriod [Value,Min,Month,Day,Hour,Minute,Max,Month,Day,Hour,Minute]
963,11,WATER HEATER,Water Heater Off Cycle Parasitic Electric Energy [J] !RunPeriod [Value,Min,Month,Day,Hour,Minute,Max,Month,Day,Hour,Minute]
965,11,WATER HEATER,Water Heater On Cycle Parasitic Electric Energy [J] !RunPeriod [Value,Min,Month,Day,Hour,Minute,Max,Month,Day,Hour,Minute]
1128,11,CENTRAL AC CLG COIL,Cooling Coil Crankcase Heater Electric Energy [J] !RunPeriod [Value,Min,Month,Day,Hour,Minute,Max,Month,Day,Hour,Minute]
End of Data Dictionary
1,RUN PERIOD 1,  39.83,-104.65,  -7.00,1650.00
2,1, 1, 1, 0, 1, 0.00,60.00,Monday
279,19.999999999999838
280,-7.727960615423112
281,10.822989326496801
2,1, 1, 1, 0, 2, 0.00,60.00,Monday
279,19.99999999999994
280,-10.302285706122476
281,9.879396032668485
2,1, 1, 1, 0, 3, 0.00,60.00,Monday
279,20.000000000000079
280,-12.372464575094105
281,9.275375026281237
2,1, 1, 1, 0, 4, 0.00,60.00,Monday
279,20.0
280,-13.868474592497558
281,8.73282200316201
2,1, 1, 1, 0, 5, 0.00,60.00,Monday
279,20.000000000000193
280,-14.854264110352036
281,8.34865496982831
2,1, 1, 1, 0, 6, 0.00,60.00,Monday
279,19.99999999999985
280,-15.315990411602537
281,8.15962921548121
2,1, 1, 1, 0, 7, 0.00,60.00,Monday
279,20.000000000000158
280,-15.373046448294426
281,7.968144405927336
2,1, 1, 1, 0, 8, 0.00,60.00,Monday
279,20.000000000000179
280,-14.637009808461802
281,7.929224468951547
2,1, 1, 1, 0, 9, 0.00,60.00,Monday
279,19.99999999999995
280,-12.820192586832471
281,7.938384560525653
2,1, 1, 1, 0,10, 0.00,60.00,Monday
279,19.999999999999998
280,-10.331470819760027
281,8.346266649934533
2,1, 1, 1, 0,11, 0.00,60.00,Monday
279,20.000000000000015
280,-7.257438449113529
281,8.903312064811077
2,1, 1, 1, 0,12, 0.00,60.00,Monday
279,19.999999999999994
280,-3.635495534819534
281,9.223961465437477
2,1, 1, 1, 0,13, 0.00,60.00,Monday
279,20.0
280,-0.7048540708468807
281,9.598043444317769
2,1, 1, 1, 0,14, 0.00,60.00,Monday
279,20.000000000000055
280,1.1617058499570415
281,9.541090566353305
2,1, 1, 1, 0,15, 0.00,60.00,Monday
279,20.00000000000002
280,2.2573155465352565
281,9.704023101513366
2,1, 1, 1, 0,16, 0.00,60.00,Monday
279,20.000000000000058
280,2.482530916636124
281,9.462451621196328
2,1, 1, 1, 0,17, 0.00,60.00,Monday
279,20.000000000000019
280,1.5729208108659648
281,8.919167703376193
2,1, 1, 1, 0,18, 0.00,60.00,Monday
279,19.999999999999948
280,-0.2780886461593283
281,8.508230380779363
2,1, 1, 1, 0,19, 0.00,60.00,Monday
279,19.999999999999966
280,-1.5901081834142533
281,7.845572093088939
2,1, 1, 1, 0,20, 0.00,60.00,Monday
279,19.999999999999877
280,-2.964917802269287
281,7.4941750752503168
2,1, 1, 1, 0,21, 0.00,60.00,Monday
279,20.0
280,-4.328956291530663
281,7.170774396464504
2,1, 1, 1, 0,22, 0.00,60.00,Monday
279,19.99999999999996
280,-5.46295199777814
281,6.917949461919792
2,1, 1, 1, 0,23, 0.00,60.00,Monday
279,19.999999999999998
280,-6.166575952723218
281,6.678538283410855
2,1, 1, 1, 0,24, 0.00,60.00,Monday
279,20.00000000000014
280,-6.202530126075595
281,6.639174592957853
2,2, 1, 2, 0, 1, 0.00,60.00,Tuesday
279,20.000000000000158
280,-5.950940071001241
281,6.448544897360528
2,2, 1, 2, 0, 2, 0.00,60.00,Tuesday
279,19.99999999999986
280,-5.911308491367898
281,6.153037656264139
2,2, 1, 2, 0, 3, 0.00,60.00,Tuesday
279,20.00000000000014
280,-5.950427862505903
281,6.054303478501506
2,2, 1, 2, 0, 4, 0.00,60.00,Tuesday
279,20.000000000000033
280,-6.204024030355476
281,5.603033345584036
2,2, 1, 2, 0, 5, 0.00,60.00,Tuesday
279,20.000000000000097
280,-6.622271046683556
281,5.556523875857348
2,2, 1, 2, 0, 6, 0.00,60.00,Tuesday
279,20.000000000000005
280,-7.040480791566625
281,5.327684086503562
2,2, 1, 2, 0, 7, 0.00,60.00,Tuesday
279,20.000000000000154
280,-7.186734944670537
281,5.426161636250117
2,2, 1, 2, 0, 8, 0.00,60.00,Tuesday
279,20.000000000000275
280,-7.13062660271932
281,5.58121226338227
2,2, 1, 2, 0, 9, 0.00,60.00,Tuesday
279,20.000000000000143
280,-6.324114971842844
281,5.701704023185977
2,2, 1, 2, 0,10, 0.00,60.00,Tuesday
279,20.000000000000008
280,-4.442960391414265
281,6.349163229589236
2,2, 1, 2, 0,11, 0.00,60.00,Tuesday
279,20.000000000000058
280,-2.150815708540584
281,7.118180670518486
2,2, 1, 2, 0,12, 0.00,60.00,Tuesday
279,20.00000000000003
280,0.9077745827049142
281,8.005152736615669
2,2, 1, 2, 0,13, 0.00,60.00,Tuesday
279,20.00000000000002
280,3.8495867378417745
281,8.493490184532302
2,2, 1, 2, 0,14, 0.00,60.00,Tuesday
279,20.00000000000002
280,6.353707515785654
281,8.799495740894674
2,2, 1, 2, 0,15, 0.00,60.00,Tuesday
279,19.999999999999998
280,8.153732301272516
281,9.21863882422862
2,2, 1, 2, 0,16, 0.00,60.00,Tuesday
279,20.000000000000019
280,8.415012822542249
281,8.944315750286693
2,2, 1, 2, 0,17, 0.00,60.00,Tuesday
279,20.00000000000004
280,7.540464120787675
281,8.822919297928605
2,2, 1, 2, 0,18, 0.00,60.00,Tuesday
279,19.999999999999955
280,5.790733584012907
281,8.526187772013298
2,2, 1, 2, 0,19, 0.00,60.00,Tuesday
279,19.99999999999998
280,4.191966275740693
281,7.685694817833068
2,2, 1, 2, 0,20, 0.00,60.00,Tuesday
279,20.00000000000008
280,2.5141106549450416
281,7.356410043000926
2,2, 1, 2, 0,21, 0.00,60.00,Tuesday
279,20.0
280,0.9331395764388647
281,6.910939261270459
2,2, 1, 2, 0,22, 0.00,60.00,Tuesday
279,20.000000000000097
280,-0.41327721454726776
281,6.856349514412914
2,2, 1, 2, 0,23, 0.00,60.00,Tuesday
279,19.99999999999999
280,-1.696856192769132
281,7.0327992013402709
2,2, 1, 2, 0,24, 0.00,60.00,Tuesday
279,20.000000000000108
280,-2.460044945949053
281,6.839543793732256
2,3, 1, 3, 0, 1, 0.00,60.00,Wednesday
279,20.000000000000005
280,-2.7613783817907615
281,6.613318682423328
2,3, 1, 3, 0, 2, 0.00,60.00,Wednesday
279,20.00000000000002
280,-2.842923835196812
281,6.496173796533672
2,3, 1, 3, 0, 3, 0.00,60.00,Wednesday
279,20.0
280,-2.9143098198632608
281,6.291213611796446
2,3, 1, 3, 0, 4, 0.00,60.00,Wednesday
279,20.000000000000005
280,-3.081569863535297
281,6.053558218090358
2,3, 1, 3, 0, 5, 0.00,60.00,Wednesday
279,20.000000000000246
280,-3.2523586242772049
281,5.912898164072825
2,3, 1, 3, 0, 6, 0.00,60.00,Wednesday
279,19.99999999999996
280,-3.2134120214173547
281,5.895003425909427
2,3, 1, 3, 0, 7, 0.00,60.00,Wednesday
279,20.000000000000154
280,-3.0518520645535189
281,5.791159837325439
2,3, 1, 3, 0, 8, 0.00,60.00,Wednesday
279,20.00000000000001
280,-2.7720554055211736
281,5.777259990968644
2,3, 1, 3, 0, 9, 0.00,60.00,Wednesday
279,20.0000000000001
280,-1.8187253861095645
281,6.393715269915303
2,3, 1, 3, 0,10, 0.00,60.00,Wednesday
279,20.000000000000055
280,-0.19803518229701237
281,6.9211733165210369
2,3, 1, 3, 0,11, 0.00,60.00,Wednesday
279,20.000000000000065
280,1.5159702596338165
281,7.182475586917294
2,3, 1, 3, 0,12, 0.00,60.00,Wednesday
279,20.000000000000015
280,3.008527870850301
281,7.495562515801192
2,3, 1, 3, 0,13, 0.00,60.00,Wednesday
279,19.999999999999994
280,4.0291790922341239
281,7.485524212589008
2,3, 1, 3, 0,14, 0.00,60.00,Wednesday
279,20.000000000000015
280,4.452803765485651
281,7.4148062856016729
2,3, 1, 3, 0,15, 0.00,60.00,Wednesday
279,20.000000000000005
280,4.2482226579139079
281,7.006374883021048
2,3, 1, 3, 0,16, 0.00,60.00,Wednesday
279,20.000000000000019
280,3.324245737047464
281,6.503184956750505
2,3, 1, 3, 0,17, 0.00,60.00,Wednesday
279,20.000000000000015
280,1.7964281716035727
281,5.937098808847045
2,3, 1, 3, 0,18, 0.00,60.00,Wednesday
279,20.000000000000037
280,-0.24585591982601869
281,5.288301673719631
2,3, 1, 3, 0,19, 0.00,60.00,Wednesday
279,20.00000000000007
280,-2.135977870466696
281,5.108868227446335
2,3, 1, 3, 0,20, 0.00,60.00,Wednesday
279,20.000000000000037
280,-3.8559689532949634
281,4.635912330024029
2,3, 1, 3, 0,21, 0.00,60.00,Wednesday
279,20.000000000000126
280,-5.493974986598547
281,4.133070440808381
2,3, 1, 3, 0,22, 0.00,60.00,Wednesday
279,19.999999999999877
280,-6.933871725058229
281,3.7025549888137756
2,3, 1, 3, 0,23, 0.00,60.00,Wednesday
279,20.000000000000108
280,-8.259804237108204
281,3.199032716475984
2,3, 1, 3, 0,24, 0.00,60.00,Wednesday
279,20.000000000000087
280,-9.352011192275539
281,2.7812908167955117
2,4, 1, 4, 0, 1, 0.00,60.00,Thursday
279,19.99999999999984
280,-10.407645661102509
281,2.337449728093628
2,4, 1, 4, 0, 2, 0.00,60.00,Thursday
279,20.00000000000037
280,-11.653772090656528
281,1.612315806935878
2,4, 1, 4, 0, 3, 0.00,60.00,Thursday
279,19.99999999999986
280,-12.853912532573525
281,1.2966508278879457
2,4, 1, 4, 0, 4, 0.00,60.00,Thursday
279,20.000000000000044
280,-13.725340015315965
281,1.2633895782536773
2,4, 1, 4, 0, 5, 0.00,60.00,Thursday
279,20.000000000000204
280,-14.378560531866328
281,1.101201189969169
2,4, 1, 4, 0, 6, 0.00,60.00,Thursday
279,20.000000000000126
280,-14.894535779502779
281,1.0347023026169658
2,4, 1, 4, 0, 7, 0.00,60.00,Thursday
279,19.999999999999976
280,-15.50981218123695
281,1.0983637006840817
2,4, 1, 4, 0, 8, 0.00,60.00,Thursday
279,19.999999999999994
280,-15.815695363023707
281,1.407665969768686
2,4, 1, 4, 0, 9, 0.00,60.00,Thursday
279,20.00000000000007
280,-15.189354653536399
281,1.8786193196567816
2,4, 1, 4, 0,10, 0.00,60.00,Thursday
279,20.00000000000013
280,-12.688430914928125
281,2.817427309249125
2,4, 1, 4, 0,11, 0.00,60.00,Thursday
279,20.000000000000079
280,-8.39003876300391
281,3.696791098302294
2,4, 1, 4, 0,12, 0.00,60.00,Thursday
279,19.999999999999909
280,-3.349870840666333
281,4.065103078087579
2,4, 1, 4, 0,13, 0.00,60.00,Thursday
279,20.000000000000094
280,0.8181561067202563
281,5.102877246225993
2,4, 1, 4, 0,14, 0.00,60.00,Thursday
279,19.999999999999959
280,3.874402250741215
281,5.889698867101797
2,4, 1, 4, 0,15, 0.00,60.00,Thursday
279,20.00000000000015
280,6.082608473605208
281,6.538910702883307
2,4, 1, 4, 0,16, 0.00,60.00,Thursday
279,20.00000000000008
280,7.2345081378271038
281,6.706832325749917
2,4, 1, 4, 0,17, 0.00,60.00,Thursday
279,19.999999999999927
280,6.939255736153161
281,6.354761830239661
2,4, 1, 4, 0,18, 0.00,60.00,Thursday
279,20.000000000000087
280,6.098622286918005
281,6.399008829148789
2,4, 1, 4, 0,19, 0.00,60.00,Thursday
279,20.000000000000005
280,5.30541546981252
281,6.276282885877913
2,4, 1, 4, 0,20, 0.00,60.00,Thursday
279,20.000000000000079
280,4.759875749409404
281,6.574074859862476
2,4, 1, 4, 0,21, 0.00,60.00,Thursday
279,20.00000000000001
280,4.3667309769555529
281,6.425733023178251
2,4, 1, 4, 0,22, 0.00,60.00,Thursday
279,19.999999999999984
280,3.9176945846284436
281,6.33098399283558
2,4, 1, 4, 0,23, 0.00,60.00,Thursday
279,20.000000000000087
280,3.3809591538346157
281,6.229854370083712
2,4, 1, 4, 0,24, 0.00,60.00,Thursday
279,20.00000000000008
280,3.732090299047647
281,7.298122432464419
2,5, 1, 5, 0, 1, 0.00,60.00,Friday
279,19.999999999999916
280,3.8782760414383854
281,6.503492732276535
2,5, 1, 5, 0, 2, 0.00,60.00,Friday
279,19.999999999999948
280,4.269035258304543
281,7.5254476573110768
2,5, 1, 5, 0, 3, 0.00,60.00,Friday
279,20.000000000000058
280,5.21065014179437
281,8.062601432305647
2,5, 1, 5, 0, 4, 0.00,60.00,Friday
279,20.000000000000079
280,5.824935313085234
281,7.830725925364119
2,5, 1, 5, 0, 5, 0.00,60.00,Friday
279,20.000000000000079
280,5.906868690718827
281,7.82310690435897
2,5, 1, 5, 0, 6, 0.00,60.00,Friday
279,19.999999999999955
280,5.855281236272303
281,7.925941160911212
2,5, 1, 5, 0, 7, 0.00,60.00,Friday
279,20.000000000000087
280,5.332946159110738
281,6.608507921968668
2,5, 1, 5, 0, 8, 0.00,60.00,Friday
279,20.00000000000004
280,4.819216732599012
281,7.747478435412007
2,5, 1, 5, 0, 9, 0.00,60.00,Friday
279,19.999999999999984
280,5.060319883889354
281,7.994530808662457
2,5, 1, 5, 0,10, 0.00,60.00,Friday
279,20.350226534463535
280,6.24727881241143
281,9.20477610909913
2,5, 1, 5, 0,11, 0.00,60.00,Friday
279,20.46761620438482
280,7.796200663951525
281,9.37964179138848
2,5, 1, 5, 0,12, 0.00,60.00,Friday
279,21.122805370555619
280,9.545888468460526
281,10.067045742689464
2,5, 1, 5, 0,13, 0.00,60.00,Friday
279,21.54171570815287
280,11.002637866181248
281,10.300850427068916
2,5, 1, 5, 0,14, 0.00,60.00,Friday
279,21.74234013313955
280,11.490744594969073
281,10.293783777609715
2,5, 1, 5, 0,15, 0.00,60.00,Friday
279,21.75872135194493
280,11.008352926913167
281,9.966901907196494
2,5, 1, 5, 0,16, 0.00,60.00,Friday
279,21.693987229017148
280,9.713847465407336
281,9.567282615557524
2,5, 1, 5, 0,17, 0.00,60.00,Friday
279,21.196143784230285
280,8.34372654372408
281,8.92008856500419
2,5, 1, 5, 0,18, 0.00,60.00,Friday
279,20.79855558896591
280,6.89893777773096
281,8.795904874812198
2,5, 1, 5, 0,19, 0.00,60.00,Friday
279,20.488771757920288
280,5.566385418423252
281,8.269677195109736
2,5, 1, 5, 0,20, 0.00,60.00,Friday
279,20.190184181432988
280,4.409988522301718
281,7.9537098241693739
2,5, 1, 5, 0,21, 0.00,60.00,Friday
279,20.00140425232889
280,3.3427857637102997
281,7.441541938001983
2,5, 1, 5, 0,22, 0.00,60.00,Friday
279,20.000027770793254
280,2.1589822872451367
281,6.915200698868974
2,5, 1, 5, 0,23, 0.00,60.00,Friday
279,20.000000813020429
280,1.02949989111811
281,6.80737417033269
2,5, 1, 5, 0,24, 0.00,60.00,Friday
279,20.00000003419907
280,0.2026712434212564
281,6.522502187180469
2,6, 1, 6, 0, 1, 0.00,60.00,Saturday
279,20.000000001558989
280,-0.19715070837885083
281,6.330245487758955
2,6, 1, 6, 0, 2, 0.00,60.00,Saturday
279,20.0000000000694
280,-0.23751155064031413
281,6.37769980072986
2,6, 1, 6, 0, 3, 0.00,60.00,Saturday
279,20.000000000003426
280,-0.2587958369518364
281,6.168958589600363
2,6, 1, 6, 0, 4, 0.00,60.00,Saturday
279,20.000000000000175
280,-0.43322778782562529
281,5.922296986971145
2,6, 1, 6, 0, 5, 0.00,60.00,Saturday
279,20.000000000000126
280,-1.0708142941931476
281,5.682243559443228
2,6, 1, 6, 0, 6, 0.00,60.00,Saturday
279,20.00000000000013
280,-1.7537222974944038
281,5.672880065363495
2,6, 1, 6, 0, 7, 0.00,60.00,Saturday
279,20.00000000000012
280,-2.084130171849037
281,5.4575037538361539
2,6, 1, 6, 0, 8, 0.00,60.00,Saturday
279,20.00000000000012
280,-2.168569574588489
281,5.329629822573115
2,6, 1, 6, 0, 9, 0.00,60.00,Saturday
279,20.00000000000009
280,-2.0380836672941875
281,5.239706173280857
2,6, 1, 6, 0,10, 0.00,60.00,Saturday
279,20.000000000000005
280,-1.4378459939034987
281,5.293729524394117
2,6, 1, 6, 0,11, 0.00,60.00,Saturday
279,19.99999999999999
280,-1.0313572300097862
281,5.290248481485751
2,6, 1, 6, 0,12, 0.00,60.00,Saturday
279,20.000000000000026
280,-0.608333415457351
281,5.511491694216949
2,6, 1, 6, 0,13, 0.00,60.00,Saturday
279,20.000000000000008
280,0.12222935641846941
281,5.714543307590589
2,6, 1, 6, 0,14, 0.00,60.00,Saturday
279,20.00000000000001
280,0.6172990318614245
281,5.698887808245555
2,6, 1, 6, 0,15, 0.00,60.00,Saturday
279,20.102382400291178
280,0.787659355692298
281,5.893084254540651
2,6, 1, 6, 0,16, 0.00,60.00,Saturday
279,20.04945763795152
280,0.6660810822210056
281,5.774544795007928
2,6, 1, 6, 0,17, 0.00,60.00,Saturday
279,20.000942122458498
280,0.1458271368667515
281,5.546450923640653
2,6, 1, 6, 0,18, 0.00,60.00,Saturday
279,20.000032551627528
280,-0.7162749738229367
281,5.281275909588891
2,6, 1, 6, 0,19, 0.00,60.00,Saturday
279,20.00000169118964
280,-1.794744064452324
281,4.8659645267501
2,6, 1, 6, 0,20, 0.00,60.00,Saturday
279,20.000000091751777
280,-2.8002788074745177
281,4.498678513873691
2,6, 1, 6, 0,21, 0.00,60.00,Saturday
279,20.000000005132553
280,-3.9299929495805614
281,4.008013133884743
2,6, 1, 6, 0,22, 0.00,60.00,Saturday
279,20.000000000326879
280,-5.073502706965308
281,3.4924560458269728
2,6, 1, 6, 0,23, 0.00,60.00,Saturday
279,20.00000000002158
280,-5.931401027793733
281,3.255610599932878
2,6, 1, 6, 0,24, 0.00,60.00,Saturday
279,20.00000000000148
280,-6.633535180511709
281,2.857194378330414
2,7, 1, 7, 0, 1, 0.00,60.00,Sunday
279,20.000000000000186
280,-7.219423503421445
281,2.6430750423110869
2,7, 1, 7, 0, 2, 0.00,60.00,Sunday
279,20.000000000000026
280,-7.612936891885667
281,2.5624695012315374
2,7, 1, 7, 0, 3, 0.00,60.00,Sunday
279,20.000000000000005
280,-8.14960836778926
281,1.9924931496426362
2,7, 1, 7, 0, 4, 0.00,60.00,Sunday
279,20.0
280,-9.03203175596678
281,1.4926393917456689
2,7, 1, 7, 0, 5, 0.00,60.00,Sunday
279,20.000000000000218
280,-10.19179245334499
281,0.9620076476131044
2,7, 1, 7, 0, 6, 0.00,60.00,Sunday
279,19.99999999999985
280,-11.028050054404991
281,0.8931847261476636
2,7, 1, 7, 0, 7, 0.00,60.00,Sunday
279,20.00000000000036
280,-11.52310416471157
281,0.6901293291276315
2,7, 1, 7, 0, 8, 0.00,60.00,Sunday
279,19.99999999999996
280,-10.596796402953738
281,2.114921232781561
2,7, 1, 7, 0, 9, 0.00,60.00,Sunday
279,20.000000000000047
280,-8.38975788957688
281,2.665825318239622
2,7, 1, 7, 0,10, 0.00,60.00,Sunday
279,20.0000000000001
280,-5.906808841388799
281,3.038965673935527
2,7, 1, 7, 0,11, 0.00,60.00,Sunday
279,20.000000000000055
280,-3.3584926715445997
281,3.494359455621466
2,7, 1, 7, 0,12, 0.00,60.00,Sunday
279,20.000000000000005
280,-0.6947386174394108
281,4.095391869983682
2,7, 1, 7, 0,13, 0.00,60.00,Sunday
279,20.000000000000108
280,1.6521326624237023
281,4.459727046363061
2,7, 1, 7, 0,14, 0.00,60.00,Sunday
279,19.999999999999937
280,3.2873519832290727
281,4.524765900772913
2,7, 1, 7, 0,15, 0.00,60.00,Sunday
279,19.99999999999994
280,4.128039529482214
281,4.677383384846372
2,7, 1, 7, 0,16, 0.00,60.00,Sunday
279,19.999999999999994
280,4.285002979925283
281,4.6935844354939368
2,7, 1, 7, 0,17, 0.00,60.00,Sunday
279,20.00000000000011
280,4.115329153343759
281,4.914807265368486
2,7, 1, 7, 0,18, 0.00,60.00,Sunday
279,19.99999999999991
280,3.835741361532201
281,5.166486504773848
2,7, 1, 7, 0,19, 0.00,60.00,Sunday
279,20.000000000000033
280,3.6428482275621048
281,5.130676362779903
2,7, 1, 7, 0,20, 0.00,60.00,Sunday
279,20.000000000000094
280,3.4198228743860907
281,5.05145961292884
2,7, 1, 7, 0,21, 0.00,60.00,Sunday
279,20.000000000000079
280,2.8891837189043119
281,4.610692654326929
2,7, 1, 7, 0,22, 0.00,60.00,Sunday
279,20.00000000000011
280,1.779488882174731
281,4.019599262504666
2,7, 1, 7, 0,23, 0.00,60.00,Sunday
279,20.000000000000005
280,0.7115468228470334
281,4.0559688116744729
2,7, 1, 7, 0,24, 0.00,60.00,Sunday
279,20.00000000000002
280,0.3634755455711342
281,4.345369055775606
2,8, 1, 8, 0, 1, 0.00,60.00,Monday
279,20.00000000000011
280,0.44800996508516047
281,4.343500231035752
2,8, 1, 8, 0, 2, 0.00,60.00,Monday
279,20.00000000000001
280,0.5122907921349202
281,4.2026044514072409
2,8, 1, 8, 0, 3, 0.00,60.00,Monday
279,20.00000000000002
280,0.26228242620977978
281,3.843106570648648
2,8, 1, 8, 0, 4, 0.00,60.00,Monday
279,20.000000000000108
280,-0.20072093585839829
281,3.56533005706758
2,8, 1, 8, 0, 5, 0.00,60.00,Monday
279,19.999999999999937
280,-0.8805322229826548
281,3.1786426133473548
2,8, 1, 8, 0, 6, 0.00,60.00,Monday
279,19.99999999999987
280,-1.7162307196476515
281,3.057844370566911
2,8, 1, 8, 0, 7, 0.00,60.00,Monday
279,20.00000000000027
280,-2.611748498793922
281,2.7542170253490849
2,8, 1, 8, 0, 8, 0.00,60.00,Monday
279,20.000000000000143
280,-3.2648505219708596
281,2.9109661938810986
2,8, 1, 8, 0, 9, 0.00,60.00,Monday
279,20.000000000000097
280,-2.6555789223008765
281,3.7853701191706605
2,8, 1, 8, 0,10, 0.00,60.00,Monday
279,20.00000000000004
280,-1.046855400937637
281,4.560006969844223
2,8, 1, 8, 0,11, 0.00,60.00,Monday
279,20.000000000000026
280,1.0611981485639022
281,5.35692045804759
2,8, 1, 8, 0,12, 0.00,60.00,Monday
279,20.000000000000008
280,3.160767199419129
281,5.97231700794816
2,8, 1, 8, 0,13, 0.00,60.00,Monday
279,20.320959493026146
280,5.264524968666427
281,7.003893416179132
2,8, 1, 8, 0,14, 0.00,60.00,Monday
279,20.684022660252
280,6.617967628254378
281,7.3421688443404
2,8, 1, 8, 0,15, 0.00,60.00,Monday
279,20.936702511667286
280,6.90610454562433
281,7.070942914801923
2,8, 1, 8, 0,16, 0.00,60.00,Monday
279,21.108022609523489
280,6.205923333510094
281,6.900634458707082
2,8, 1, 8, 0,17, 0.00,60.00,Monday
279,20.600829002298718
280,5.148604631110011
281,6.480178810566776
2,8, 1, 8, 0,18, 0.00,60.00,Monday
279,20.005086509988794
280,3.728196672083593
281,5.458267257720801
2,8, 1, 8, 0,19, 0.00,60.00,Monday
279,20.000123628533495
280,2.2757870682177927
281,5.1968398730344369
2,8, 1, 8, 0,20, 0.00,60.00,Monday
279,20.000004089962905
280,1.0540596771470255
281,4.8501784615817569
2,8, 1, 8, 0,21, 0.00,60.00,Monday
279,20.000000169400886
280,0.060779457102284117
281,4.771636873936391
2,8, 1, 8, 0,22, 0.00,60.00,Monday
279,20.000000008277156
280,-0.666670394865958
281,4.41357833616208
2,8, 1, 8, 0,23, 0.00,60.00,Monday
279,20.000000000393248
280,-1.2824746449853444
281,4.332328853899259
2,8, 1, 8, 0,24, 0.00,60.00,Monday
279,20.000000000021357
280,-1.8399710851877674
281,3.992441185429527
2,9, 1, 9, 0, 1, 0.00,60.00,Tuesday
279,20.0000000000013
280,-2.4942188476220195
281,3.7375262860450468
2,9, 1, 9, 0, 2, 0.00,60.00,Tuesday
279,20.00000000000016
280,-3.0960868292939645
281,3.59002039125621
2,9, 1, 9, 0, 3, 0.00,60.00,Tuesday
279,20.000000000000076
280,-3.5478681864627545
281,3.460565351320445
2,9, 1, 9, 0, 4, 0.00,60.00,Tuesday
279,20.00000000000014
280,-3.887431036083611
281,3.3379833391836977
2,9, 1, 9, 0, 5, 0.00,60.00,Tuesday
279,19.99999999999993
280,-4.225083101531001
281,3.108235343360943
2,9, 1, 9, 0, 6, 0.00,60.00,Tuesday
279,20.0
280,-4.513783661493006
281,3.0862159298434075
2,9, 1, 9, 0, 7, 0.00,60.00,Tuesday
279,20.000000000000168
280,-5.465091724743405
281,2.6788853757824957
2,9, 1, 9, 0, 8, 0.00,60.00,Tuesday
279,20.000000000000126
280,-5.81445495104445
281,3.2195089279785065
2,9, 1, 9, 0, 9, 0.00,60.00,Tuesday
279,20.000000000000168
280,-5.102709175138931
281,3.5857212501630397
2,9, 1, 9, 0,10, 0.00,60.00,Tuesday
279,20.00000000000001
280,-3.6454919660668239
281,4.088307369355992
2,9, 1, 9, 0,11, 0.00,60.00,Tuesday
279,20.000000000000033
280,-1.889940961603361
281,4.522103980016179
2,9, 1, 9, 0,12, 0.00,60.00,Tuesday
279,20.00000000000002
280,-0.21351387928507044
281,4.610896809003271
2,9, 1, 9, 0,13, 0.00,60.00,Tuesday
279,20.000000000000005
280,1.0799368443166584
281,4.757375911042892
2,9, 1, 9, 0,14, 0.00,60.00,Tuesday
279,20.016945437423265
280,1.8894895840563489
281,5.077024781919624
2,9, 1, 9, 0,15, 0.00,60.00,Tuesday
279,20.27510286742112
280,2.346138316701474
281,5.422405125209836
2,9, 1, 9, 0,16, 0.00,60.00,Tuesday
279,20.321744762084827
280,2.4815525937766327
281,5.5172587404461119
2,9, 1, 9, 0,17, 0.00,60.00,Tuesday
279,20.00192020793507
280,2.1910827199614357
281,5.354400220438679
2,9, 1, 9, 0,18, 0.00,60.00,Tuesday
279,20.0000492524164
280,1.384288712491364
281,4.976295967091559
2,9, 1, 9, 0,19, 0.00,60.00,Tuesday
279,20.000001760655218
280,0.4263674917865811
281,4.71235746063325
2,9, 1, 9, 0,20, 0.00,60.00,Tuesday
279,20.00000007151292
280,-0.25232888763032099
281,4.740102988950797
2,9, 1, 9, 0,21, 0.00,60.00,Tuesday
279,20.00000000335224
280,-0.9537611265726652
281,4.19148873443359
2,9, 1, 9, 0,22, 0.00,60.00,Tuesday
279,20.00000000016324
280,-1.653782133089309
281,4.044497734950841
2,9, 1, 9, 0,23, 0.00,60.00,Tuesday
279,20.00000000000883
280,-2.3375682832871926
281,3.718344128116527
2,9, 1, 9, 0,24, 0.00,60.00,Tuesday
279,20.000000000000573
280,-3.145955750219476
281,3.2641703941598796
2,10, 1,10, 0, 1, 0.00,60.00,Wednesday
279,19.99999999999989
280,-3.899132195297884
281,3.0962813777690876
2,10, 1,10, 0, 2, 0.00,60.00,Wednesday
279,19.999999999999998
280,-4.562836656820427
281,2.8403387208957198
2,10, 1,10, 0, 3, 0.00,60.00,Wednesday
279,20.000000000000147
280,-5.168843834495063
281,2.689643241926451
2,10, 1,10, 0, 4, 0.00,60.00,Wednesday
279,19.99999999999991
280,-5.677418114335783
281,2.4443930577865937
2,10, 1,10, 0, 5, 0.00,60.00,Wednesday
279,19.999999999999994
280,-6.127169423892839
281,2.2041329206819895
2,10, 1,10, 0, 6, 0.00,60.00,Wednesday
279,20.000000000000158
280,-6.64418601846859
281,1.9482217559206608
2,10, 1,10, 0, 7, 0.00,60.00,Wednesday
279,19.999999999999817
280,-7.02190835003513
281,1.9858109369259292
2,10, 1,10, 0, 8, 0.00,60.00,Wednesday
279,20.00000000000011
280,-7.0534272060154159
281,1.9911099383328635
2,10, 1,10, 0, 9, 0.00,60.00,Wednesday
279,20.000000000000097
280,-6.375447779905943
281,2.5104967637705766
2,10, 1,10, 0,10, 0.00,60.00,Wednesday
279,20.000000000000055
280,-4.918915996149309
281,3.2418371581401788
2,10, 1,10, 0,11, 0.00,60.00,Wednesday
279,20.000000000000047
280,-3.0540524194295037
281,4.0254864311576938
2,10, 1,10, 0,12, 0.00,60.00,Wednesday
279,20.000000000000015
280,-0.9801100939299857
281,4.786419955448965
2,10, 1,10, 0,13, 0.00,60.00,Wednesday
279,20.193934669319739
280,0.8339488442967372
281,5.663711513563724
2,10, 1,10, 0,14, 0.00,60.00,Wednesday
279,20.36697430795125
280,1.998881581964572
281,5.955192797809934
2,10, 1,10, 0,15, 0.00,60.00,Wednesday
279,20.683568749090836
280,2.1375737161025785
281,6.09599971066696
2,10, 1,10, 0,16, 0.00,60.00,Wednesday
279,20.836389868734864
280,2.091076807070229
281,6.181002760488919
2,10, 1,10, 0,17, 0.00,60.00,Wednesday
279,20.361458857545285
280,1.7990193473543
281,5.6340681540618189
2,10, 1,10, 0,18, 0.00,60.00,Wednesday
279,20.005235391078764
280,0.8699576831603201
281,4.91185211585688
2,10, 1,10, 0,19, 0.00,60.00,Wednesday
279,20.000149243754426
280,-0.27443674349273858
281,4.5543457433808769
2,10, 1,10, 0,20, 0.00,60.00,Wednesday
279,20.00000534837994
280,-1.3694848285318509
281,4.21362669861208
2,10, 1,10, 0,21, 0.00,60.00,Wednesday
279,20.000000243159645
280,-2.14631062407932
281,4.251946702251929
2,10, 1,10, 0,22, 0.00,60.00,Wednesday
279,20.000000012529968
280,-2.814509222457962
281,3.6981739484736444
2,10, 1,10, 0,23, 0.00,60.00,Wednesday
279,20.00000000070409
280,-3.6500117177858568
281,3.3004982728670066
2,10, 1,10, 0,24, 0.00,60.00,Wednesday
279,20.00000000004383
280,-4.385999212879184
281,3.0182035039332826
2,11, 1,11, 0, 1, 0.00,60.00,Thursday
279,20.00000000000296
280,-5.034505907753114
281,2.718610676536116
2,11, 1,11, 0, 2, 0.00,60.00,Thursday
279,20.00000000000033
280,-5.666513111045401
281,2.4392195086370065
2,11, 1,11, 0, 3, 0.00,60.00,Thursday
279,20.000000000000097
280,-6.240978292888596
281,2.26892992911434
2,11, 1,11, 0, 4, 0.00,60.00,Thursday
279,20.00000000000007
280,-6.565065811806098
281,2.210191873541808
2,11, 1,11, 0, 5, 0.00,60.00,Thursday
279,20.000000000000147
280,-6.606180752703306
281,2.1778128741433298
2,11, 1,11, 0, 6, 0.00,60.00,Thursday
279,20.000000000000055
280,-6.428883481955187
281,2.261293565865795
2,11, 1,11, 0, 7, 0.00,60.00,Thursday
279,20.000000000000158
280,-6.188527129588517
281,2.1787865656043978
2,11, 1,11, 0, 8, 0.00,60.00,Thursday
279,20.000000000000147
280,-5.856225828500591
281,2.1987577708879799
2,11, 1,11, 0, 9, 0.00,60.00,Thursday
279,20.00000000000024
280,-5.066668421670292
281,2.4445694908312678
2,11, 1,11, 0,10, 0.00,60.00,Thursday
279,20.000000000000087
280,-3.7644428187341569
281,3.00852958195918
2,11, 1,11, 0,11, 0.00,60.00,Thursday
279,20.000000000000047
280,-1.743162423674316
281,4.389395713333354
2,11, 1,11, 0,12, 0.00,60.00,Thursday
279,19.999999999999998
280,0.7441801231498355
281,5.248134856436021
2,11, 1,11, 0,13, 0.00,60.00,Thursday
279,20.120688684264157
280,3.759840678978616
281,6.200457912291359
2,11, 1,11, 0,14, 0.00,60.00,Thursday
279,20.415777313379978
280,6.402632714377683
281,6.826998683562713
2,11, 1,11, 0,15, 0.00,60.00,Thursday
279,20.327374813777696
280,8.1855367499346
281,7.316669432009048
2,11, 1,11, 0,16, 0.00,60.00,Thursday
279,20.00043025460863
280,8.928057519661273
281,7.22808740393706
2,11, 1,11, 0,17, 0.00,60.00,Thursday
279,20.000005270417984
280,8.489551587907759
281,7.024330927452214
2,11, 1,11, 0,18, 0.00,60.00,Thursday
279,20.000000088104469
280,7.301652748497244
281,6.974372449868815
2,11, 1,11, 0,19, 0.00,60.00,Thursday
279,20.000000001843156
280,6.436051357666582
281,6.845561939127559
2,11, 1,11, 0,20, 0.00,60.00,Thursday
279,20.00000000004914
280,5.69577457771558
281,6.403825638598179
2,11, 1,11, 0,21, 0.00,60.00,Thursday
279,20.000000000001504
280,4.894374038429067
281,6.006170494255058
2,11, 1,11, 0,22, 0.00,60.00,Thursday
279,20.000000000000094
280,4.5430204927673449
281,6.382513046499903
2,11, 1,11, 0,23, 0.00,60.00,Thursday
279,20.00000000000001
280,4.308081661115427
281,5.939975701445197
2,11, 1,11, 0,24, 0.00,60.00,Thursday
279,20.000000000000005
280,3.9378504943932719
281,5.658389629536431
2,12, 1,12, 0, 1, 0.00,60.00,Friday
279,19.999999999999998
280,3.450085550242469
281,5.357080925631369
2,12, 1,12, 0, 2, 0.00,60.00,Friday
279,20.000000000000044
280,2.586273874732028
281,4.6553109519584698
2,12, 1,12, 0, 3, 0.00,60.00,Friday
279,20.000000000000094
280,1.492728110545442
281,4.318482222885002
2,12, 1,12, 0, 4, 0.00,60.00,Friday
279,20.00000000000011
280,0.3051387047033092