Program Version,EnergyPlus-Windows-64 8.1.0.008, YMD=2014.09.10 14:22
1,5,Environment Title[],Latitude[deg],Longitude[deg],Time Zone[],Elevation[m]
2,6,Day of Simulation[],Month[],Day of Month[],DST Indicator[1=yes 0=no],Hour[],StartMinute[],EndMinute[],DayType
3,3,Cumulative Day of Simulation[],Month[],Day of Month[],DST Indicator[1=yes 0=no],DayType  ! When Daily Meters Requested
4,2,Cumulative Days of Simulation[],Month[]  ! When Monthly Meters Requested
5,1,Cumulative Days of Simulation[] ! When Run Period Meters Requested
12,1,Electricity:Facility [J] !TimeStep
End of Data Dictionary
1,DENVER CENTENNIAL  GOLDEN   N ANN CLG .4% CONDNS DB=>MWB,  39.74,-105.18,  -7.00,1829.00
2,1, 7,21, 0, 1, 0.00,60.00,SummerDesignDay
12,987982.627692093
2,1, 7,21, 0, 2, 0.00,60.00,SummerDesignDay
12,914041.039811342
2,1, 7,21, 0, 3, 0.00,60.00,SummerDesignDay
12,892904.619472724
2,1, 7,21, 0, 4, 0.00,60.00,SummerDesignDay
12,866248.941675376
2,1, 7,21, 0, 5, 0.00,60.00,SummerDesignDay
12,818801.406370336
2,1, 7,21, 0, 6, 0.00,60.00,SummerDesignDay
12,903850.775614792
2,1, 7,21, 0, 7, 0.00,60.00,SummerDesignDay
12,1121450.52883863
2,1, 7,21, 0, 8, 0.00,60.00,SummerDesignDay
12,1297963.61151017
2,1, 7,21, 0, 9, 0.00,60.00,SummerDesignDay
12,1123249.32174277
2,1, 7,21, 0,10, 0.00,60.00,SummerDesignDay
12,938873.979284138
2,1, 7,21, 0,11, 0.00,60.00,SummerDesignDay
12,911538.319414419
2,1, 7,21, 0,12, 0.00,60.00,SummerDesignDay
12,951703.785704997
2,1, 7,21, 0,13, 0.00,60.00,SummerDesignDay
12,961308.264881268
2,1, 7,21, 0,14, 0.00,60.00,SummerDesignDay
12,996122.811238026
2,1, 7,21, 0,15, 0.00,60.00,SummerDesignDay
12,1083283.10421097
2,1, 7,21, 0,16, 0.00,60.00,SummerDesignDay
12,1043792.09462148
2,1, 7,21, 0,17, 0.00,60.00,SummerDesignDay
12,1397821.42360383
2,1, 7,21, 0,18, 0.00,60.00,SummerDesignDay
12,1948969.13693793
2,1, 7,21, 0,19, 0.00,60.00,SummerDesignDay
12,2064048.51239104
2,1, 7,21, 0,20, 0.00,60.00,SummerDesignDay
12,1920407.38987268
2,1, 7,21, 0,21, 0.00,60.00,SummerDesignDay
12,1845869.03510547
2,1, 7,21, 0,22, 0.00,60.00,SummerDesignDay
12,1721765.50900147
2,1, 7,21, 0,23, 0.00,60.00,SummerDesignDay
12,1448376.41430389
2,1, 7,21, 0,24, 0.00,60.00,SummerDesignDay
12,1223130.6240001
1,DENVER CENTENNIAL  GOLDEN   N ANN CLG .4% CONDNS DP=>MDB,  39.74,-105.18,  -7.00,1829.00
2,1, 7,21, 0, 1, 0.00,60.00,SummerDesignDay
12,987982.627692093
2,1, 7,21, 0, 2, 0.00,60.00,SummerDesignDay
12,914041.039811342
2,1, 7,21, 0, 3, 0.00,60.00,SummerDesignDay
12,892904.619472724
2,1, 7,21, 0, 4, 0.00,60.00,SummerDesignDay
12,866248.941675376
2,1, 7,21, 0, 5, 0.00,60.00,SummerDesignDay
12,818801.406370336
2,1, 7,21, 0, 6, 0.00,60.00,SummerDesignDay
12,903850.775614792
2,1, 7,21, 0, 7, 0.00,60.00,SummerDesignDay
12,1121450.52883863
2,1, 7,21, 0, 8, 0.00,60.00,SummerDesignDay
12,1297963.61151017
2,1, 7,21, 0, 9, 0.00,60.00,SummerDesignDay
12,1123249.32174277
2,1, 7,21, 0,10, 0.00,60.00,SummerDesignDay
12,938873.979284138
2,1, 7,21, 0,11, 0.00,60.00,SummerDesignDay
12,911538.319414419
2,1, 7,21, 0,12, 0.00,60.00,SummerDesignDay
12,951703.785704997
2,1, 7,21, 0,13, 0.00,60.00,SummerDesignDay
12,961308.264881268
2,1, 7,21, 0,14, 0.00,60.00,SummerDesignDay
12,996122.811238026
2,1, 7,21, 0,15, 0.00,60.00,SummerDesignDay
12,1083283.10421097
2,1, 7,21, 0,16, 0.00,60.00,SummerDesignDay
12,1043792.09462148
2,1, 7,21, 0,17, 0.00,60.00,SummerDesignDay
12,1397821.42360383
2,1, 7,21, 0,18, 0.00,60.00,SummerDesignDay
12,1948969.13693793
2,1, 7,21, 0,19, 0.00,60.00,SummerDesignDay
12,2064048.51239104
2,1, 7,21, 0,20, 0.00,60.00,SummerDesignDay
12,1920407.38987268
2,1, 7,21, 0,21, 0.00,60.00,SummerDesignDay
12,1845869.03510547
2,1, 7,21, 0,22, 0.00,60.00,SummerDesignDay
12,1721765.50900147
2,1, 7,21, 0,23, 0.00,60.00,SummerDesignDay
12,1448376.41430389
2,1, 7,21, 0,24, 0.00,60.00,SummerDesignDay
12,1223130.6240001
1,DENVER CENTENNIAL  GOLDEN   N ANN CLG .4% CONDNS ENTH=>MDB,  39.74,-105.18,  -7.00,1829.00
2,1, 7,21, 0, 1, 0.00,60.00,SummerDesignDay
12,987982.627692093
2,1, 7,21, 0, 2, 0.00,60.00,SummerDesignDay
12,914041.039811342
2,1, 7,21, 0, 3, 0.00,60.00,SummerDesignDay
12,892904.619472724
2,1, 7,21, 0, 4, 0.00,60.00,SummerDesignDay
12,866248.941675376
2,1, 7,21, 0, 5, 0.00,60.00,SummerDesignDay
12,818801.406370336
2,1, 7,21, 0, 6, 0.00,60.00,SummerDesignDay
12,903850.775614792
2,1, 7,21, 0, 7, 0.00,60.00,SummerDesignDay
12,1121450.52883863
2,1, 7,21, 0, 8, 0.00,60.00,SummerDesignDay
12,1297963.61151017
2,1, 7,21, 0, 9, 0.00,60.00,SummerDesignDay
12,1123249.32174277
2,1, 7,21, 0,10, 0.00,60.00,SummerDesignDay
12,938873.979284138
2,1, 7,21, 0,11, 0.00,60.00,SummerDesignDay
12,911538.319414419
2,1, 7,21, 0,12, 0.00,60.00,SummerDesignDay
12,951703.785704997
2,1, 7,21, 0,13, 0.00,60.00,SummerDesignDay
12,961308.264881268
2,1, 7,21, 0,14, 0.00,60.00,SummerDesignDay
12,996122.811238026
2,1, 7,21, 0,15, 0.00,60.00,SummerDesignDay
12,1083283.10421097
2,1, 7,21, 0,16, 0.00,60.00,SummerDesignDay
12,1043792.09462148
2,1, 7,21, 0,17, 0.00,60.00,SummerDesignDay
12,1397821.42360383
2,1, 7,21, 0,18, 0.00,60.00,SummerDesignDay
12,1948969.13693793
2,1, 7,21, 0,19, 0.00,60.00,SummerDesignDay
12,2064048.51239104
2,1, 7,21, 0,20, 0.00,60.00,SummerDesignDay
12,1920407.38987268
2,1, 7,21, 0,21, 0.00,60.00,SummerDesignDay
12,1845869.03510547
2,1, 7,21, 0,22, 0.00,60.00,SummerDesignDay
12,1721765.50900147
2,1, 7,21, 0,23, 0.00,60.00,SummerDesignDay
12,1448376.41430389
2,1, 7,21, 0,24, 0.00,60.00,SummerDesignDay
12,1223130.6240001
1,DENVER CENTENNIAL  GOLDEN   N ANN CLG .4% CONDNS WB=>MDB,  39.74,-105.18,  -7.00,1829.00
2,1, 7,21, 0, 1, 0.00,60.00,SummerDesignDay
12,987982.627692093
2,1, 7,21, 0, 2, 0.00,60.00,SummerDesignDay
12,914041.039811342
2,1, 7,21, 0, 3, 0.00,60.00,SummerDesignDay
12,892904.619472724
2,1, 7,21, 0, 4, 0.00,60.00,SummerDesignDay
12,866248.941675376
2,1, 7,21, 0, 5, 0.00,60.00,SummerDesignDay
12,818801.406370336
2,1, 7,21, 0, 6, 0.00,60.00,SummerDesignDay
12,903850.775614792
2,1, 7,21, 0, 7, 0.00,60.00,SummerDesignDay
12,1121450.52883863
2,1, 7,21, 0, 8, 0.00,60.00,SummerDesignDay
12,1297963.61151017
2,1, 7,21, 0, 9, 0.00,60.00,SummerDesignDay
12,1123249.32174277
2,1, 7,21, 0,10, 0.00,60.00,SummerDesignDay
12,938873.979284138
2,1, 7,21, 0,11, 0.00,60.00,SummerDesignDay
12,911538.319414419
2,1, 7,21, 0,12, 0.00,60.00,SummerDesignDay
12,951703.785704997
2,1, 7,21, 0,13, 0.00,60.00,SummerDesignDay
12,961308.264881268
2,1, 7,21, 0,14, 0.00,60.00,SummerDesignDay
12,996122.811238026
2,1, 7,21, 0,15, 0.00,60.00,SummerDesignDay
12,1083283.10421097
2,1, 7,21, 0,16, 0.00,60.00,SummerDesignDay
12,1043792.09462148
2,1, 7,21, 0,17, 0.00,60.00,SummerDesignDay
12,1397821.42360383
2,1, 7,21, 0,18, 0.00,60.00,SummerDesignDay
12,1948969.13693793
2,1, 7,21, 0,19, 0.00,60.00,SummerDesignDay
12,2064048.51239104
2,1, 7,21, 0,20, 0.00,60.00,SummerDesignDay
12,1920407.38987268
2,1, 7,21, 0,21, 0.00,60.00,SummerDesignDay
12,1845869.03510547
2,1, 7,21, 0,22, 0.00,60.00,SummerDesignDay
12,1721765.50900147
2,1, 7,21, 0,23, 0.00,60.00,SummerDesignDay
12,1448376.41430389
2,1, 7,21, 0,24, 0.00,60.00,SummerDesignDay
12,1223130.6240001
1,DENVER CENTENNIAL  GOLDEN   N ANN HTG 99.6% CONDNS DB,  39.74,-105.18,  -7.00,1829.00
2,1,12,21, 0, 1, 0.00,60.00,WinterDesignDay
12,1329960.22924306
2,1,12,21, 0, 2, 0.00,60.00,WinterDesignDay
12,1228688.47238334
2,1,12,21, 0, 3, 0.00,60.00,WinterDesignDay
12,1205612.40718392
2,1,12,21, 0, 4, 0.00,60.00,WinterDesignDay
12,1170585.04263588
2,1,12,21, 0, 5, 0.00,60.00,WinterDesignDay
12,1098854.53757611
2,1,12,21, 0, 6, 0.00,60.00,WinterDesignDay
12,1216404.56246198
2,1,12,21, 0, 7, 0.00,60.00,WinterDesignDay
12,1512364.15780437
2,1,12,21, 0, 8, 0.00,60.00,WinterDesignDay
12,1741846.55847629
2,1,12,21, 0, 9, 0.00,60.00,WinterDesignDay
12,1446857.51216064
2,1,12,21, 0,10, 0.00,60.00,WinterDesignDay
12,1160241.98359599
2,1,12,21, 0,11, 0.00,60.00,WinterDesignDay
12,1137398.72075537
2,1,12,21, 0,12, 0.00,60.00,WinterDesignDay
12,1195169.29275807
2,1,12,21, 0,13, 0.00,60.00,WinterDesignDay
12,1200189.55361655
2,1,12,21, 0,14, 0.00,60.00,WinterDesignDay
12,1261748.00060763
2,1,12,21, 0,15, 0.00,60.00,WinterDesignDay
12,1388519.08074522
2,1,12,21, 0,16, 0.00,60.00,WinterDesignDay
12,1346410.33666159
2,1,12,21, 0,17, 0.00,60.00,WinterDesignDay
12,1812226.87794049
2,1,12,21, 0,18, 0.00,60.00,WinterDesignDay
12,2550566.26775414
2,1,12,21, 0,19, 0.00,60.00,WinterDesignDay
12,2724703.75415504
2,1,12,21, 0,20, 0.00,60.00,WinterDesignDay
12,2563297.91955947
2,1,12,21, 0,21, 0.00,60.00,WinterDesignDay
12,2502390.75674355
2,1,12,21, 0,22, 0.00,60.00,WinterDesignDay
12,2350278.97202723
2,1,12,21, 0,23, 0.00,60.00,WinterDesignDay
12,1975170.97724243
2,1,12,21, 0,24, 0.00,60.00,WinterDesignDay
12,1662856.01462799
1,DENVER CENTENNIAL  GOLDEN   N ANN HTG WIND 99.6% CONDNS WS=>MCDB,  39.74,-105.18,  -7.00,1829.00
2,1,12,21, 0, 1, 0.00,60.00,WinterDesignDay
12,1329960.22924306
2,1,12,21, 0, 2, 0.00,60.00,WinterDesignDay
12,1228688.47238334
2,1,12,21, 0, 3, 0.00,60.00,WinterDesignDay
12,1205612.40718392
2,1,12,21, 0, 4, 0.00,60.00,WinterDesignDay
12,1170585.04263588
2,1,12,21, 0, 5, 0.00,60.00,WinterDesignDay
12,1098854.53757611
2,1,12,21, 0, 6, 0.00,60.00,WinterDesignDay
12,1216404.56246198
2,1,12,21, 0, 7, 0.00,60.00,WinterDesignDay
12,1512364.15780437
2,1,12,21, 0, 8, 0.00,60.00,WinterDesignDay
12,1741846.55847629
2,1,12,21, 0, 9, 0.00,60.00,WinterDesignDay
12,1446857.51216064
2,1,12,21, 0,10, 0.00,60.00,WinterDesignDay
12,1160241.98359599
2,1,12,21, 0,11, 0.00,60.00,WinterDesignDay
12,1137398.72075537
2,1,12,21, 0,12, 0.00,60.00,WinterDesignDay
12,1195169.29275807
2,1,12,21, 0,13, 0.00,60.00,WinterDesignDay
12,1200189.55361655
2,1,12,21, 0,14, 0.00,60.00,WinterDesignDay
12,1261748.00060763
2,1,12,21, 0,15, 0.00,60.00,WinterDesignDay
12,1388519.08074522
2,1,12,21, 0,16, 0.00,60.00,WinterDesignDay
12,1346410.33666159
2,1,12,21, 0,17, 0.00,60.00,WinterDesignDay
12,1812226.87794049
2,1,12,21, 0,18, 0.00,60.00,WinterDesignDay
12,2550566.26775414
2,1,12,21, 0,19, 0.00,60.00,WinterDesignDay
12,2724703.75415504
2,1,12,21, 0,20, 0.00,60.00,WinterDesignDay
12,2563297.91955947
2,1,12,21, 0,21, 0.00,60.00,WinterDesignDay
12,2502390.75674355
2,1,12,21, 0,22, 0.00,60.00,WinterDesignDay
12,2350278.97202723
2,1,12,21, 0,23, 0.00,60.00,WinterDesignDay
12,1975170.97724243
2,1,12,21, 0,24, 0.00,60.00,WinterDesignDay
12,1662856.01462799
1,DENVER CENTENNIAL  GOLDEN   N ANN HUM_N 99.6% CONDNS DP=>MCDB,  39.74,-105.18,  -7.00,1829.00
2,1,12,21, 0, 1, 0.00,60.00,WinterDesignDay
12,1329960.22924306
2,1,12,21, 0, 2, 0.00,60.00,WinterDesignDay
12,1228688.47238334
2,1,12,21, 0, 3, 0.00,60.00,WinterDesignDay
12,1205612.40718392
2,1,12,21, 0, 4, 0.00,60.00,WinterDesignDay
12,1170585.04263588
2,1,12,21, 0, 5, 0.00,60.00,WinterDesignDay
12,1098854.53757611
2,1,12,21, 0, 6, 0.00,60.00,WinterDesignDay
12,1216404.56246198
2,1,12,21, 0, 7, 0.00,60.00,WinterDesignDay
12,1512364.15780437
2,1,12,21, 0, 8, 0.00,60.00,WinterDesignDay
12,1741846.55847629
2,1,12,21, 0, 9, 0.00,60.00,WinterDesignDay
12,1446857.51216064
2,1,12,21, 0,10, 0.00,60.00,WinterDesignDay
12,1160241.98359599
2,1,12,21, 0,11, 0.00,60.00,WinterDesignDay
12,1137398.72075537
2,1,12,21, 0,12, 0.00,60.00,WinterDesignDay
12,1195169.29275807
2,1,12,21, 0,13, 0.00,60.00,WinterDesignDay
12,1200189.55361655
2,1,12,21, 0,14, 0.00,60.00,WinterDesignDay
12,1261748.00060763
2,1,12,21, 0,15, 0.00,60.00,WinterDesignDay
12,1388519.08074522
2,1,12,21, 0,16, 0.00,60.00,WinterDesignDay
12,1346410.33666159
2,1,12,21, 0,17, 0.00,60.00,WinterDesignDay
12,1812226.87794049
2,1,12,21, 0,18, 0.00,60.00,WinterDesignDay
12,2550566.26775414
2,1,12,21, 0,19, 0.00,60.00,WinterDesignDay
12,2724703.75415504
2,1,12,21, 0,20, 0.00,60.00,WinterDesignDay
12,2563297.91955947
2,1,12,21, 0,21, 0.00,60.00,WinterDesignDay
12,2502390.75674355
2,1,12,21, 0,22, 0.00,60.00,WinterDesignDay
12,2350278.97202723
2,1,12,21, 0,23, 0.00,60.00,WinterDesignDay
12,1975170.97724243
2,1,12,21, 0,24, 0.00,60.00,WinterDesignDay
12,1662856.01462799
1,RUN PERIOD 1,  39.74,-105.18,  -7.00,1829.00
2,1, 1, 1, 0, 1, 0.00,60.00,Sunday         
12,1331753.8767415
2,1, 1, 1, 0, 2, 0.00,60.00,Sunday         
12,1229525.50788261
2,1, 1, 1, 0, 3, 0.00,60.00,Sunday         
12,1206210.2896834
2,1, 1, 1, 0, 4, 0.00,60.00,Sunday         
12,1170943.77213557
2,1, 1, 1, 0, 5, 0.00,60.00,Sunday         
12,1099213.2670758
2,1, 1, 1, 0, 6, 0.00,60.00,Sunday         
12,1217600.32746094
2,1, 1, 1, 0, 7, 0.00,60.00,Sunday         
12,1514755.68780229
2,1, 1, 1, 0, 8, 0.00,60.00,Sunday         
12,1745553.42997307
2,1, 1, 1, 0, 9, 0.00,60.00,Sunday         
12,1453792.94915462
2,1, 1, 1, 0,10, 0.00,60.00,Sunday         
12,1168014.45608925
2,1, 1, 1, 0,11, 0.00,60.00,Sunday         
12,1144095.00474956
2,1, 1, 1, 0,12, 0.00,60.00,Sunday         
12,1200908.96475309
2,1, 1, 1, 0,13, 0.00,60.00,Sunday         
12,1205092.1901123
2,1, 1, 1, 0,14, 0.00,60.00,Sunday         
12,1267248.51960286
2,1, 1, 1, 0,15, 0.00,60.00,Sunday         
12,1392823.83474148
2,1, 1, 1, 0,16, 0.00,60.00,Sunday         
12,1350954.24365764
2,1, 1, 1, 0,17, 0.00,60.00,Sunday         
12,1816770.78493654
2,1, 1, 1, 0,18, 0.00,60.00,Sunday         
12,2556425.51624906
2,1, 1, 1, 0,19, 0.00,60.00,Sunday         
12,2735106.90964601
2,1, 1, 1, 0,20, 0.00,60.00,Sunday         
12,2576570.91104795
2,1, 1, 1, 0,21, 0.00,60.00,Sunday         
12,2513152.64173421
2,1, 1, 1, 0,22, 0.00,60.00,Sunday         
12,2358290.59752028
2,1, 1, 1, 0,23, 0.00,60.00,Sunday         
12,1980432.34323786
2,1, 1, 1, 0,24, 0.00,60.00,Sunday         
12,1666562.88612477
2,2, 1, 2, 0, 1, 0.00,60.00,Monday         
12,1329960.22924306
2,2, 1, 2, 0, 2, 0.00,60.00,Monday         
12,1228688.47238334
2,2, 1, 2, 0, 3, 0.00,60.00,Monday         
12,1205612.40718392
2,2, 1, 2, 0, 4, 0.00,60.00,Monday         
12,1170585.04263588
2,2, 1, 2, 0, 5, 0.00,60.00,Monday         
12,1098854.53757611
2,2, 1, 2, 0, 6, 0.00,60.00,Monday         
12,1216404.56246198
2,2, 1, 2, 0, 7, 0.00,60.00,Monday         
12,1512364.15780437
2,2, 1, 2, 0, 8, 0.00,60.00,Monday         
12,1741846.55847629
2,2, 1, 2, 0, 9, 0.00,60.00,Monday         
12,1446857.51216064
2,2, 1, 2, 0,10, 0.00,60.00,Monday         
12,1160241.98359599
2,2, 1, 2, 0,11, 0.00,60.00,Monday         
12,1137398.72075537
2,2, 1, 2, 0,12, 0.00,60.00,Monday         
12,1195169.29275807
2,2, 1, 2, 0,13, 0.00,60.00,Monday         
12,1200189.55361655
2,2, 1, 2, 0,14, 0.00,60.00,Monday         
12,1261748.00060763
2,2, 1, 2, 0,15, 0.00,60.00,Monday         
12,1388519.08074522
2,2, 1, 2, 0,16, 0.00,60.00,Monday         
12,1346410.33666159
2,2, 1, 2, 0,17, 0.00,60.00,Monday         
12,1812226.87794049
2,2, 1, 2, 0,18, 0.00,60.00,Monday         
12,2550566.26775414
2,2, 1, 2, 0,19, 0.00,60.00,Monday         
12,2724703.75415504
2,2, 1, 2, 0,20, 0.00,60.00,Monday         
12,2563297.91955947
2,2, 1, 2, 0,21, 0.00,60.00,Monday         
12,2502390.75674355
2,2, 1, 2, 0,22, 0.00,60.00,Monday         
12,2350278.97202723
2,2, 1, 2, 0,23, 0.00,60.00,Monday         
12,1975170.97724243
2,2, 1, 2, 0,24, 0.00,60.00,Monday         
12,1662856.01462799
2,3, 1, 3, 0, 1, 0.00,60.00,Tuesday        
12,1329960.22924306
2,3, 1, 3, 0, 2, 0.00,60.00,Tuesday        
12,1228688.47238334
2,3, 1, 3, 0, 3, 0.00,60.00,Tuesday        
12,1205612.40718392
2,3, 1, 3, 0, 4, 0.00,60.00,Tuesday        
12,1170585.04263588
2,3, 1, 3, 0, 5, 0.00,60.00,Tuesday        
12,1098854.53757611
2,3, 1, 3, 0, 6, 0.00,60.00,Tuesday        
12,1216404.56246198
2,3, 1, 3, 0, 7, 0.00,60.00,Tuesday        
12,1512364.15780437
2,3, 1, 3, 0, 8, 0.00,60.00,Tuesday        
12,1741846.55847629
2,3, 1, 3, 0, 9, 0.00,60.00,Tuesday        
12,1446857.51216064
2,3, 1, 3, 0,10, 0.00,60.00,Tuesday        
12,1160241.98359599
2,3, 1, 3, 0,11, 0.00,60.00,Tuesday        
12,1137398.72075537
2,3, 1, 3, 0,12, 0.00,60.00,Tuesday        
12,1195169.29275807
2,3, 1, 3, 0,13, 0.00,60.00,Tuesday        
12,1200189.55361655
2,3, 1, 3, 0,14, 0.00,60.00,Tuesday        
12,1261748.00060763
2,3, 1, 3, 0,15, 0.00,60.00,Tuesday        
12,1388519.08074522
2,3, 1, 3, 0,16, 0.00,60.00,Tuesday        
12,1346410.33666159
2,3, 1, 3, 0,17, 0.00,60.00,Tuesday        
12,1812226.87794049
2,3, 1, 3, 0,18, 0.00,60.00,Tuesday        
12,2550566.26775414
2,3, 1, 3, 0,19, 0.00,60.00,Tuesday        
12,2724703.75415504
2,3, 1, 3, 0,20, 0.00,60.00,Tuesday        
12,2563297.91955947
2,3, 1, 3, 0,21, 0.00,60.00,Tuesday        
12,2502390.75674355
2,3, 1, 3, 0,22, 0.00,60.00,Tuesday        
12,2350278.97202723
2,3, 1, 3, 0,23, 0.00,60.00,Tuesday        
12,1975170.97724243
2,3, 1, 3, 0,24, 0.00,60.00,Tuesday        
12,1662856.01462799
2,4, 1, 4, 0, 1, 0.00,60.00,Wednesday      
12,1329960.22924306
2,4, 1, 4, 0, 2, 0.00,60.00,Wednesday      
12,1228688.47238334
2,4, 1, 4, 0, 3, 0.00,60.00,Wednesday      
12,1205612.40718392
2,4, 1, 4, 0, 4, 0.00,60.00,Wednesday      
12,1170585.04263588
2,4, 1, 4, 0, 5, 0.00,60.00,Wednesday      
12,1098854.53757611
2,4, 1, 4, 0, 6, 0.00,60.00,Wednesday      
12,1216404.56246198
2,4, 1, 4, 0, 7, 0.00,60.00,Wednesday      
12,1512364.15780437
2,4, 1, 4, 0, 8, 0.00,60.00,Wednesday      
12,1741846.55847629
2,4, 1, 4, 0, 9, 0.00,60.00,Wednesday      
12,1446857.51216064
2,4, 1, 4, 0,10, 0.00,60.00,Wednesday      
12,1160241.98359599
2,4, 1, 4, 0,11, 0.00,60.00,Wednesday      
12,1137398.72075537
2,4, 1, 4, 0,12, 0.00,60.00,Wednesday      
12,1195169.29275807
2,4, 1, 4, 0,13, 0.00,60.00,Wednesday      
12,1200189.55361655
2,4, 1, 4, 0,14, 0.00,60.00,Wednesday      
12,1261748.00060763
2,4, 1, 4, 0,15, 0.00,60.00,Wednesday      
12,1388519.08074522
2,4, 1, 4, 0,16, 0.00,60.00,Wednesday      
12,1346410.33666159
2,4, 1, 4, 0,17, 0.00,60.00,Wednesday      
12,1812226.87794049
2,4, 1, 4, 0,18, 0.00,60.00,Wednesday      
12,2550566.26775414
2,4, 1, 4, 0,19, 0.00,60.00,Wednesday      
12,2724703.75415504
2,4, 1, 4, 0,20, 0.00,60.00,Wednesday      
12,2563297.91955947
2,4, 1, 4, 0,21, 0.00,60.00,Wednesday      
12,2502390.75674355
2,4, 1, 4, 0,22, 0.00,60.00,Wednesday      
12,2350278.97202723
2,4, 1, 4, 0,23, 0.00,60.00,Wednesday      
12,1975170.97724243
2,4, 1, 4, 0,24, 0.00,60.00,Wednesday      
12,1662856.01462799
2,5, 1, 5, 0, 1, 0.00,60.00,Thursday       
12,1329960.22924306
2,5, 1, 5, 0, 2, 0.00,60.00,Thursday       
12,1228688.47238334
2,5, 1, 5, 0, 3, 0.00,60.00,Thursday       
12,1205612.40718392
2,5, 1, 5, 0, 4, 0.00,60.00,Thursday       
12,1170585.04263588
2,5, 1, 5, 0, 5, 0.00,60.00,Thursday       
12,1098854.53757611
2,5, 1, 5, 0, 6, 0.00,60.00,Thursday       
12,1216404.56246198
2,5, 1, 5, 0, 7, 0.00,60.00,Thursday       
12,1512364.15780437
2,5, 1, 5, 0, 8, 0.00,60.00,Thursday       
12,1741846.55847629
2,5, 1, 5, 0, 9, 0.00,60.00,Thursday       
12,1446857.51216064
2,5, 1, 5, 0,10, 0.00,60.00,Thursday       
12,1160241.98359599
2,5, 1, 5, 0,11, 0.00,60.00,Thursday       
12,1137398.72075537
2,5, 1, 5, 0,12, 0.00,60.00,Thursday       
12,1195169.29275807
2,5, 1, 5, 0,13, 0.00,60.00,Thursday       
12,1200189.55361655
2,5, 1, 5, 0,14, 0.00,60.00,Thursday       
12,1261748.00060763
2,5, 1, 5, 0,15, 0.00,60.00,Thursday       
12,1388519.08074522
2,5, 1, 5, 0,16, 0.00,60.00,Thursday       
12,1346410.33666159
2,5, 1, 5, 0,17, 0.00,60.00,Thursday       
12,1812226.87794049
2,5, 1, 5, 0,18, 0.00,60.00,Thursday       
12,2550566.26775414
2,5, 1, 5, 0,19, 0.00,60.00,Thursday       
12,2724703.75415504
2,5, 1, 5, 0,20, 0.00,60.00,Thursday       
12,2563297.91955947
2,5, 1, 5, 0,21, 0.00,60.00,Thursday       
12,2502390.75674355
2,5, 1, 5, 0,22, 0.00,60.00,Thursday       
12,2350278.97202723
2,5, 1, 5, 0,23, 0.00,60.00,Thursday       
12,1975170.97724243
2,5, 1, 5, 0,24, 0.00,60.00,Thursday       
12,1662856.01462799
2,6, 1, 6, 0, 1, 0.00,60.00,Friday         
12,1329960.22924306
2,6, 1, 6, 0, 2, 0.00,60.00,Friday         
12,1228688.47238334
2,6, 1, 6, 0, 3, 0.00,60.00,Friday         
12,1205612.40718392
2,6, 1, 6, 0, 4, 0.00,60.00,Friday         
12,1170585.04263588
2,6, 1, 6, 0, 5, 0.00,60.00,Friday         
12,1098854.53757611
2,6, 1, 6, 0, 6, 0.00,60.00,Friday         
12,1216404.56246198
2,6, 1, 6, 0, 7, 0.00,60.00,Friday         
12,1512364.15780437
2,6, 1, 6, 0, 8, 0.00,60.00,Friday         
12,1741846.55847629
2,6, 1, 6, 0, 9, 0.00,60.00,Friday         
12,1446857.51216064
2,6, 1, 6, 0,10, 0.00,60.00,Friday         
12,1160241.98359599
2,6, 1, 6, 0,11, 0.00,60.00,Friday         
12,1137398.72075537
2,6, 1, 6, 0,12, 0.00,60.00,Friday         
12,1195169.29275807
2,6, 1, 6, 0,13, 0.00,60.00,Friday         
12,1200189.55361655
2,6, 1, 6, 0,14, 0.00,60.00,Friday         
12,1261748.00060763
2,6, 1, 6, 0,15, 0.00,60.00,Friday         
12,1388519.08074522
2,6, 1, 6, 0,16, 0.00,60.00,Friday         
12,1346410.33666159
2,6, 1, 6, 0,17, 0.00,60.00,Friday         
12,1812226.87794049
2,6, 1, 6, 0,18, 0.00,60.00,Friday         
12,2550566.26775414
2,6, 1, 6, 0,19, 0.00,60.00,Friday         
12,2724703.75415504
2,6, 1, 6, 0,20, 0.00,60.00,Friday         
12,2563297.91955947
2,6, 1, 6, 0,21, 0.00,60.00,Friday         
12,2502390.75674355
2,6, 1, 6, 0,22, 0.00,60.00,Friday         
12,2350278.97202723
2,6, 1, 6, 0,23, 0.00,60.00,Friday         
12,1975170.97724243
2,6, 1, 6, 0,24, 0.00,60.00,Friday         
12,1662856.01462799
2,7, 1, 7, 0, 1, 0.00,60.00,Saturday       
12,1331753.8767415
2,7, 1, 7, 0, 2, 0.00,60.00,Saturday       
12,1229525.50788261
2,7, 1, 7, 0, 3, 0.00,60.00,Saturday       
12,1206210.2896834
2,7, 1, 7, 0, 4, 0.00,60.00,Saturday       
12,1170943.77213557
2,7, 1, 7, 0, 5, 0.00,60.00,Saturday       
12,1099213.2670758
2,7, 1, 7, 0, 6, 0.00,60.00,Saturday       
12,1217600.32746094
2,7, 1, 7, 0, 7, 0.00,60.00,Saturday       
12,1514755.68780229
2,7, 1, 7, 0, 8, 0.00,60.00,Saturday       
12,1745553.42997307
2,7, 1, 7, 0, 9, 0.00,60.00,Saturday       
12,1453792.94915462
2,7, 1, 7, 0,10, 0.00,60.00,Saturday       
12,1168014.45608925
2,7, 1, 7, 0,11, 0.00,60.00,Saturday       
12,1144095.00474956
2,7, 1, 7, 0,12, 0.00,60.00,Saturday       
12,1200908.96475309
2,7, 1, 7, 0,13, 0.00,60.00,Saturday       
12,1205092.1901123
2,7, 1, 7, 0,14, 0.00,60.00,Saturday       
12,1267248.51960286
2,7, 1, 7, 0,15, 0.00,60.00,Saturday       
12,1392823.83474148
2,7, 1, 7, 0,16, 0.00,60.00,Saturday       
12,1350954.24365764
2,7, 1, 7, 0,17, 0.00,60.00,Saturday       
12,1816770.78493654
2,7, 1, 7, 0,18, 0.00,60.00,Saturday       
12,2556425.51624906
2,7, 1, 7, 0,19, 0.00,60.00,Saturday       
12,2735106.90964601
2,7, 1, 7, 0,20, 0.00,60.00,Saturday       
12,2576570.91104795
2,7, 1, 7, 0,21, 0.00,60.00,Saturday       
12,2513152.64173421
2,7, 1, 7, 0,22, 0.00,60.00,Saturday       
12,2358290.59752028
2,7, 1, 7, 0,23, 0.00,60.00,Saturday       
12,1980432.34323786
2,7, 1, 7, 0,24, 0.00,60.00,Saturday       
12,1666562.88612477
2,8, 1, 8, 0, 1, 0.00,60.00,Sunday         
12,1331753.8767415
2,8, 1, 8, 0, 2, 0.00,60.00,Sunday         
12,1229525.50788261
2,8, 1, 8, 0, 3, 0.00,60.00,Sunday         
12,1206210.2896834
2,8, 1, 8, 0, 4, 0.00,60.00,Sunday         
12,1170943.77213557
2,8, 1, 8, 0, 5, 0.00,60.00,Sunday         
12,1099213.2670758
2,8, 1, 8, 0, 6, 0.00,60.00,Sunday         
12,1217600.32746094
2,8, 1, 8, 0, 7, 0.00,60.00,Sunday         
12,1514755.68780229
2,8, 1, 8, 0, 8, 0.00,60.00,Sunday         
12,1745553.42997307
2,8, 1, 8, 0, 9, 0.00,60.00,Sunday         
12,1453792.94915462
2,8, 1, 8, 0,10, 0.00,60.00,Sunday         
12,1168014.45608925
2,8, 1, 8, 0,11, 0.00,60.00,Sunday         
12,1144095.00474956
2,8, 1, 8, 0,12, 0.00,60.00,Sunday         
12,1200908.96475309
2,8, 1, 8, 0,13, 0.00,60.00,Sunday         
12,1205092.1901123
2,8, 1, 8, 0,14, 0.00,60.00,Sunday         
12,1267248.51960286
2,8, 1, 8, 0,15, 0.00,60.00,Sunday         
12,1392823.83474148
2,8, 1, 8, 0,16, 0.00,60.00,Sunday         
12,1350954.24365764
2,8, 1, 8, 0,17, 0.00,60.00,Sunday         
12,1816770.78493654
2,8, 1, 8, 0,18, 0.00,60.00,Sunday         
12,2556425.51624906
2,8, 1, 8, 0,19, 0.00,60.00,Sunday         
12,2735106.90964601
2,8, 1, 8, 0,20, 0.00,60.00,Sunday         
12,2576570.91104795
2,8, 1, 8, 0,21, 0.00,60.00,Sunday         
12,2513152.64173421
2,8, 1, 8, 0,22, 0.00,60.00,Sunday         
12,2358290.59752028
2,8, 1, 8, 0,23, 0.00,60.00,Sunday         
12,1980432.34323786
2,8, 1, 8, 0,24, 0.00,60.00,Sunday         
12,1666562.88612477
2,9, 1, 9, 0, 1, 0.00,60.00,Monday         
12,1329960.22924306
2,9, 1, 9, 0, 2, 0.00,60.00,Monday         
12,1228688.47238334
2,9, 1, 9, 0, 3, 0.00,60.00,Monday         
12,1205612.40718392
2,9, 1, 9, 0, 4, 0.00,60.00,Monday         
12,1170585.04263588
2,9, 1, 9, 0, 5, 0.00,60.00,Monday         
12,1098854.53757611
2,9, 1, 9, 0, 6, 0.00,60.00,Monday         
12,1216404.56246198
2,9, 1, 9, 0, 7, 0.00,60.00,Monday         
12,1512364.15780437
2,9, 1, 9, 0, 8, 0.00,60.00,Monday         
12,1741846.55847629
2,9, 1, 9, 0, 9, 0.00,60.00,Monday         
12,1446857.51216064
2,9, 1, 9, 0,10, 0.00,60.00,Monday         
12,1160241.98359599
2,9, 1, 9, 0,11, 0.00,60.00,Monday         
12,1137398.72075537
2,9, 1, 9, 0,12, 0.00,60.00,Monday         
12,1195169.29275807
2,9, 1, 9, 0,13, 0.00,60.00,Monday         
12,1200189.55361655
2,9, 1, 9, 0,14, 0.00,60.00,Monday         
12,1261748.00060763
2,9, 1, 9, 0,15, 0.00,60.00,Monday         
12,1388519.08074522
2,9, 1, 9, 0,16, 0.00,60.00,Monday         
12,1346410.33666159
2,9, 1, 9, 0,17, 0.00,60.00,Monday         
12,1812226.87794049
2,9, 1, 9, 0,18, 0.00,60.00,Monday         
12,2550566.26775414
2,9, 1, 9, 0,19, 0.00,60.00,Monday         
12,2724703.75415504
2,9, 1, 9, 0,20, 0.00,60.00,Monday         
12,2563297.91955947
2,9, 1, 9, 0,21, 0.00,60.00,Monday         
12,2502390.75674355
2,9, 1, 9, 0,22, 0.00,60.00,Monday         
12,2350278.97202723
2,9, 1, 9, 0,23, 0.00,60.00,Monday         
12,1975170.97724243
2,9, 1, 9, 0,24, 0.00,60.00,Monday         
12,1662856.01462799
2,10, 1,10, 0, 1, 0.00,60.00,Tuesday        
12,1329960.22924306
2,10, 1,10, 0, 2, 0.00,60.00,Tuesday        
12,1228688.47238334
2,10, 1,10, 0, 3, 0.00,60.00,Tuesday        
12,1205612.40718392
2,10, 1,10, 0, 4, 0.00,60.00,Tuesday        
12,1170585.04263588
2,10, 1,10, 0, 5, 0.00,60.00,Tuesday        
12,1098854.53757611
2,10, 1,10, 0, 6, 0.00,60.00,Tuesday        
12,1216404.56246198
2,10, 1,10, 0, 7, 0.00,60.00,Tuesday        
12,1512364.15780437
2,10, 1,10, 0, 8, 0.00,60.00,Tuesday        
12,1741846.55847629
2,10, 1,10, 0, 9, 0.00,60.00,Tuesday        
12,1446857.51216064
2,10, 1,10, 0,10, 0.00,60.00,Tuesday        
12,1160241.98359599
2,10, 1,10, 0,11, 0.00,60.00,Tuesday        
12,1137398.72075537
2,10, 1,10, 0,12, 0.00,60.00,Tuesday        
12,1195169.29275807
2,10, 1,10, 0,13, 0.00,60.00,Tuesday        
12,1200189.55361655
2,10, 1,10, 0,14, 0.00,60.00,Tuesday        
12,1261748.00060763
2,10, 1,10, 0,15, 0.00,60.00,Tuesday        
12,1388519.08074522
2,10, 1,10, 0,16, 0.00,60.00,Tuesday        
12,1346410.33666159
2,10, 1,10, 0,17, 0.00,60.00,Tuesday        
12,1812226.87794049
2,10, 1,10, 0,18, 0.00,60.00,Tuesday        
12,2550566.26775414
2,10, 1,10, 0,19, 0.00,60.00,Tuesday        
12,2724703.75415504
2,10, 1,10, 0,20, 0.00,60.00,Tuesday        
12,2563297.91955947
2,10, 1,10, 0,21, 0.00,60.00,Tuesday        
12,2502390.75674355
2,10, 1,10, 0,22, 0.00,60.00,Tuesday        
12,2350278.97202723
2,10, 1,10, 0,23, 0.00,60.00,Tuesday        
12,1975170.97724243
2,10, 1,10, 0,24, 0.00,60.00,Tuesday        
12,1662856.01462799
2,11, 1,11, 0, 1, 0.00,60.00,Wednesday      
12,1329960.22924306
2,11, 1,11, 0, 2, 0.00,60.00,Wednesday      
12,1228688.47238334
2,11, 1,11, 0, 3, 0.00,60.00,Wednesday      
12,1205612.40718392
2,11, 1,11, 0, 4, 0.00,60.00,Wednesday      
12,1170585.04263588
2,11, 1,11, 0, 5, 0.00,60.00,Wednesday      
12,1098854.53757611
2,11, 1,11, 0, 6, 0.00,60.00,Wednesday      
12,1216404.56246198
2,11, 1,11, 0, 7, 0.00,60.00,Wednesday      
12,1512364.15780437
2,11, 1,11, 0, 8, 0.00,60.00,Wednesday      
12,1741846.55847629
2,11, 1,11, 0, 9, 0.00,60.00,Wednesday      
12,1446857.51216064
2,11, 1,11, 0,10, 0.00,60.00,Wednesday      
12,1160241.98359599
2,11, 1,11, 0,11, 0.00,60.00,Wednesday      
12,1137398.72075537
2,11, 1,11, 0,12, 0.00,60.00,Wednesday      
12,1195169.29275807
2,11, 1,11, 0,13, 0.00,60.00,Wednesday      
12,1200189.55361655
2,11, 1,11, 0,14, 0.00,60.00,Wednesday      
12,1261748.00060763
2,11, 1,11, 0,15, 0.00,60.00,Wednesday      
12,1388519.08074522
2,11, 1,11, 0,16, 0.00,60.00,Wednesday      
12,1346410.33666159
2,11, 1,11, 0,17, 0.00,60.00,Wednesday      
12,1812226.87794049
2,11, 1,11, 0,18, 0.00,60.00,Wednesday      
12,2550566.26775414
2,11, 1,11, 0,19, 0.00,60.00,Wednesday      
12,2724703.75415504
2,11, 1,11, 0,20, 0.00,60.00,Wednesday      
12,2563297.91955947
2,11, 1,11, 0,21, 0.00,60.00,Wednesday      
12,2502390.75674355
2,11, 1,11, 0,22, 0.00,60.00,Wednesday      
12,2350278.97202723
2,11, 1,11, 0,23, 0.00,60.00,Wednesday      
12,1975170.97724243
2,11, 1,11, 0,24, 0.00,60.00,Wednesday      
12,1662856.01462799
2,12, 1,12, 0, 1, 0.00,60.00,Thursday       
12,1329960.22924306
2,12, 1,12, 0, 2, 0.00,60.00,Thursday       
12,1228688.47238334
2,12, 1,12, 0, 3, 0.00,60.00,Thursday       
12,1205612.40718392
2,12, 1,12, 0, 4, 0.00,60.00,Thursday       
12,1170585.04263588
2,12, 1,12, 0, 5, 0.00,60.00,Thursday       
12,1098854.53757611
2,12, 1,12, 0, 6, 0.00,60.00,Thursday       
12,1216404.56246198
2,12, 1,12, 0, 7, 0.00,60.00,Thursday       
12,1512364.15780437
2,12, 1,12, 0, 8, 0.00,60.00,Thursday       
12,1741846.55847629
2,12, 1,12, 0, 9, 0.00,60.00,Thursday       
12,1446857.51216064
2,12, 1,12, 0,10, 0.00,60.00,Thursday       
12,1160241.98359599
2,12, 1,12, 0,11, 0.00,60.00,Thursday       
12,1137398.72075537
2,12, 1,12, 0,12, 0.00,60.00,Thursday       
12,1195169.29275807
2,12, 1,12, 0,13, 0.00,60.00,Thursday       
12,1200189.55361655
2,12, 1,12, 0,14, 0.00,60.00,Thursday       
12,1261748.00060763
2,12, 1,12, 0,15, 0.00,60.00,Thursday       
12,1388519.08074522
2,12, 1,12, 0,16, 0.00,60.00,Thursday       