Program Version,EnergyPlus, Version 8.3.0-6d97d074ea, YMD=2015.07.01 12:46
1,5,Environment Title[],Latitude[deg],Longitude[deg],Time Zone[],Elevation[m]
2,6,Day of Simulation[],Month[],Day of Month[],DST Indicator[1=yes 0=no],Hour[],StartMinute[],EndMinute[],DayType
3,3,Cumulative Day of Simulation[],Month[],Day of Month[],DST Indicator[1=yes 0=no],DayType  ! When Daily Meters Requested
4,2,Cumulative Days of Simulation[],Month[]  ! When Monthly Meters Requested
5,1,Cumulative Days of Simulation[] ! When Run Period Meters Requested
12,1,Electricity:Facility [J] !TimeStep
130,1,Gas:Facility [J] !TimeStep
End of Data Dictionary
1,DENVER CENTENNIAL  GOLDEN   N ANN CLG .4% CONDNS DB=>MWB,  39.74,-105.18,  -7.00,1829.00
2,1, 7,21, 0, 1, 0.00,60.00,SummerDesignDay
12,1787822.47115199
130,135670.712818216
2,1, 7,21, 0, 2, 0.00,60.00,SummerDesignDay
12,1395141.86920425
130,130895.40935685
2,1, 7,21, 0, 3, 0.00,60.00,SummerDesignDay
12,1213139.78768592
130,130895.40935685
2,1, 7,21, 0, 4, 0.00,60.00,SummerDesignDay
12,1165836.61217792
130,2201993.12269953
2,1, 7,21, 0, 5, 0.00,60.00,SummerDesignDay
12,1141280.80580285
130,692994.525116451
2,1, 7,21, 0, 6, 0.00,60.00,SummerDesignDay
12,1260877.42335242
130,785124.65609066
2,1, 7,21, 0, 7, 0.00,60.00,SummerDesignDay
12,1687670.82915026
130,707212.442093674
2,1, 7,21, 0, 8, 0.00,60.00,SummerDesignDay
12,2255078.27843037
130,697156.279557481
2,1, 7,21, 0, 9, 0.00,60.00,SummerDesignDay
12,2111812.98452721
130,653755.766030784
2,1, 7,21, 0,10, 0.00,60.00,SummerDesignDay
12,2872653.68152168
130,621189.438745758
2,1, 7,21, 0,11, 0.00,60.00,SummerDesignDay
12,4679072.75984333
130,621677.245708505
2,1, 7,21, 0,12, 0.00,60.00,SummerDesignDay
12,7287749.06831637
130,623255.827191847
2,1, 7,21, 0,13, 0.00,60.00,SummerDesignDay
12,9636211.30347906
130,621663.676824206
2,1, 7,21, 0,14, 0.00,60.00,SummerDesignDay
12,11610112.4820814
130,628030.671739293
2,1, 7,21, 0,15, 0.00,60.00,SummerDesignDay
12,13010763.1775309
130,632806.008237863
2,1, 7,21, 0,16, 0.00,60.00,SummerDesignDay
12,13515714.5436828
130,634398.138198049
2,1, 7,21, 0,17, 0.00,60.00,SummerDesignDay
12,13418126.8865963
130,645540.878573824
2,1, 7,21, 0,18, 0.00,60.00,SummerDesignDay
12,13053144.8721335
130,667825.758311829
2,1, 7,21, 0,19, 0.00,60.00,SummerDesignDay
12,11155034.2494134
130,683743.311296289
2,1, 7,21, 0,20, 0.00,60.00,SummerDesignDay
12,8984167.21140545
130,690110.143865583
2,1, 7,21, 0,21, 0.00,60.00,SummerDesignDay
12,7711033.69934126
130,696477.118008371
2,1, 7,21, 0,22, 0.00,60.00,SummerDesignDay
12,6912797.94313075
130,693293.697602685
2,1, 7,21, 0,23, 0.00,60.00,SummerDesignDay
12,5030946.09120187
130,677376.298254573
2,1, 7,21, 0,24, 0.00,60.00,SummerDesignDay
12,3230953.86175086
130,663051.086625911
1,DENVER CENTENNIAL  GOLDEN   N ANN CLG .4% CONDNS DP=>MDB,  39.74,-105.18,  -7.00,1829.00
2,1, 7,21, 0, 1, 0.00,60.00,SummerDesignDay
12,2600105.30073375
130,21338675.3781616
2,1, 7,21, 0, 2, 0.00,60.00,SummerDesignDay
12,2347829.07549758
130,24998873.0939907
2,1, 7,21, 0, 3, 0.00,60.00,SummerDesignDay
12,2274386.13598844
130,29476525.6499797
2,1, 7,21, 0, 4, 0.00,60.00,SummerDesignDay
12,2311930.67614462
130,30616792.1811603
2,1, 7,21, 0, 5, 0.00,60.00,SummerDesignDay
12,2355892.060262
130,32400530.2595712
2,1, 7,21, 0, 6, 0.00,60.00,SummerDesignDay
12,2462586.74029452
130,32155542.0849459
2,1, 7,21, 0, 7, 0.00,60.00,SummerDesignDay
12,2814899.11755657
130,30135467.0974862
2,1, 7,21, 0, 8, 0.00,60.00,SummerDesignDay
12,3126393.87794164
130,23461749.3629367
2,1, 7,21, 0, 9, 0.00,60.00,SummerDesignDay
12,2745122.91711733
130,17228398.5662212
2,1, 7,21, 0,10, 0.00,60.00,SummerDesignDay
12,2345885.44553365
130,10746347.7926493
2,1, 7,21, 0,11, 0.00,60.00,SummerDesignDay
12,2174791.3366732
130,5275058.21029003
2,1, 7,21, 0,12, 0.00,60.00,SummerDesignDay
12,2079369.3188873
130,1142444.6599169
2,1, 7,21, 0,13, 0.00,60.00,SummerDesignDay
12,1993106.21103407
130,665682.459986882
2,1, 7,21, 0,14, 0.00,60.00,SummerDesignDay
12,1950485.33066344
130,653732.436155562
2,1, 7,21, 0,15, 0.00,60.00,SummerDesignDay
12,1926744.83372516
130,641785.317202472
2,1, 7,21, 0,16, 0.00,60.00,SummerDesignDay
12,2716984.55739725
130,634996.545712231
2,1, 7,21, 0,17, 0.00,60.00,SummerDesignDay
12,3422275.42495396
130,645564.331621635
2,1, 7,21, 0,18, 0.00,60.00,SummerDesignDay
12,3454791.9200163
130,667835.561179213
2,1, 7,21, 0,19, 0.00,60.00,SummerDesignDay
12,3150945.10489277
130,688100.252109112
2,1, 7,21, 0,20, 0.00,60.00,SummerDesignDay
12,3462173.45062553
130,718196.95386944
2,1, 7,21, 0,21, 0.00,60.00,SummerDesignDay
12,4112119.22450355
130,897719.053391514
2,1, 7,21, 0,22, 0.00,60.00,SummerDesignDay
12,4866149.9403956
130,5147124.43134542
2,1, 7,21, 0,23, 0.00,60.00,SummerDesignDay
12,4344041.17749956
130,11630799.7920265
2,1, 7,21, 0,24, 0.00,60.00,SummerDesignDay
12,3507096.4831421
130,17275336.2187186
1,DENVER CENTENNIAL  GOLDEN   N ANN CLG .4% CONDNS ENTH=>MDB,  39.74,-105.18,  -7.00,1829.00
2,1, 7,21, 0, 1, 0.00,60.00,SummerDesignDay
12,1845799.40777355
130,1649041.68768193
2,1, 7,21, 0, 2, 0.00,60.00,SummerDesignDay
12,1594851.04328495
130,5343900.5296613
2,1, 7,21, 0, 3, 0.00,60.00,SummerDesignDay
12,1527563.99630695
130,9978774.2053088
2,1, 7,21, 0, 4, 0.00,60.00,SummerDesignDay
12,1584344.04969638
130,11624601.1936749
2,1, 7,21, 0, 5, 0.00,60.00,SummerDesignDay
12,1641044.63641625
130,13740869.733176
2,1, 7,21, 0, 6, 0.00,60.00,SummerDesignDay
12,1766531.84295674
130,13986427.4508581
2,1, 7,21, 0, 7, 0.00,60.00,SummerDesignDay
12,2129705.01040099
130,12249856.8970697
2,1, 7,21, 0, 8, 0.00,60.00,SummerDesignDay
12,2496717.589156
130,7025320.07318405
2,1, 7,21, 0, 9, 0.00,60.00,SummerDesignDay
12,2166843.24760443
130,2133574.34484844
2,1, 7,21, 0,10, 0.00,60.00,SummerDesignDay
12,1960230.7865402
130,665964.248217873
2,1, 7,21, 0,11, 0.00,60.00,SummerDesignDay
12,1998801.65767928
130,644872.347887962
2,1, 7,21, 0,12, 0.00,60.00,SummerDesignDay
12,3119864.69555302
130,625788.112644131
2,1, 7,21, 0,13, 0.00,60.00,SummerDesignDay
12,6062148.91169157
130,621800.048965147
2,1, 7,21, 0,14, 0.00,60.00,SummerDesignDay
12,8506659.66556017
130,628149.099239604
2,1, 7,21, 0,15, 0.00,60.00,SummerDesignDay
12,10312992.771028
130,632954.697544062
2,1, 7,21, 0,16, 0.00,60.00,SummerDesignDay
12,10726908.3732967
130,634543.916766586
2,1, 7,21, 0,17, 0.00,60.00,SummerDesignDay
12,10430447.2845867
130,645638.743330026
2,1, 7,21, 0,18, 0.00,60.00,SummerDesignDay
12,10046935.1654309
130,667891.123043593
2,1, 7,21, 0,19, 0.00,60.00,SummerDesignDay
12,8374748.5585077
130,683787.382262961
2,1, 7,21, 0,20, 0.00,60.00,SummerDesignDay
12,6142704.39630353
130,690136.756015458
2,1, 7,21, 0,21, 0.00,60.00,SummerDesignDay
12,5010005.75943793
130,696490.865292498
2,1, 7,21, 0,22, 0.00,60.00,SummerDesignDay
12,4697791.83249069
130,697473.515978049
2,1, 7,21, 0,23, 0.00,60.00,SummerDesignDay
12,3926698.57198866
130,698904.239512533
2,1, 7,21, 0,24, 0.00,60.00,SummerDesignDay
12,2872964.06254111
130,704493.696033709
1,DENVER CENTENNIAL  GOLDEN   N ANN CLG .4% CONDNS WB=>MDB,  39.74,-105.18,  -7.00,1829.00
2,1, 7,21, 0, 1, 0.00,60.00,SummerDesignDay
12,1853365.43123062
130,1846537.46725054
2,1, 7,21, 0, 2, 0.00,60.00,SummerDesignDay
12,1602143.29040724
130,5534249.93029333
2,1, 7,21, 0, 3, 0.00,60.00,SummerDesignDay
12,1533822.3178193
130,10142414.4598367
2,1, 7,21, 0, 4, 0.00,60.00,SummerDesignDay
12,1588331.50734983
130,11728682.5407349
2,1, 7,21, 0, 5, 0.00,60.00,SummerDesignDay
12,1644302.37278928
130,13825900.8433336
2,1, 7,21, 0, 6, 0.00,60.00,SummerDesignDay
12,1769110.59040994
130,14053739.4605931
2,1, 7,21, 0, 7, 0.00,60.00,SummerDesignDay
12,2131773.52502807
130,12303851.2787832
2,1, 7,21, 0, 8, 0.00,60.00,SummerDesignDay
12,2498682.84640018
130,7076619.14896905
2,1, 7,21, 0, 9, 0.00,60.00,SummerDesignDay
12,2169463.723911
130,2201976.59260011
2,1, 7,21, 0,10, 0.00,60.00,SummerDesignDay
12,1960230.7865402
130,666428.688901833
2,1, 7,21, 0,11, 0.00,60.00,SummerDesignDay
12,1998801.65767928
130,645619.978970158
2,1, 7,21, 0,12, 0.00,60.00,SummerDesignDay
12,2667798.13172758
130,626019.194971806
2,1, 7,21, 0,13, 0.00,60.00,SummerDesignDay
12,4644707.83138631
130,621796.085265394
2,1, 7,21, 0,14, 0.00,60.00,SummerDesignDay
12,6460680.05395889
130,628077.552668975
2,1, 7,21, 0,15, 0.00,60.00,SummerDesignDay
12,8014198.94426662
130,632860.122724354
2,1, 7,21, 0,16, 0.00,60.00,SummerDesignDay
12,8669189.41186072
130,634447.902818199
2,1, 7,21, 0,17, 0.00,60.00,SummerDesignDay
12,8793848.19411602
130,645573.492569395
2,1, 7,21, 0,18, 0.00,60.00,SummerDesignDay
12,8674511.69920547
130,667848.645675747
2,1, 7,21, 0,19, 0.00,60.00,SummerDesignDay
12,7433124.90904271
130,683761.124440017
2,1, 7,21, 0,20, 0.00,60.00,SummerDesignDay
12,5648142.78950902
130,690122.707055149
2,1, 7,21, 0,21, 0.00,60.00,SummerDesignDay
12,4790463.2478069
130,696484.338741201
2,1, 7,21, 0,22, 0.00,60.00,SummerDesignDay
12,4697791.83249069
130,698456.878216862
2,1, 7,21, 0,23, 0.00,60.00,SummerDesignDay
12,3926698.57198866
130,700141.469688955
2,1, 7,21, 0,24, 0.00,60.00,SummerDesignDay
12,2872964.06254111
130,705667.956002792
1,DENVER CENTENNIAL  GOLDEN   N ANN HTG 99.6% CONDNS DB,  39.74,-105.18,  -7.00,1829.00
2,1,12,21, 0, 1, 0.00,60.00,WinterDesignDay
12,5958876.78243039
130,100118406.68644
2,1,12,21, 0, 2, 0.00,60.00,WinterDesignDay
12,5555732.9623835
130,100551478.151761
2,1,12,21, 0, 3, 0.00,60.00,WinterDesignDay
12,5381364.22243787
130,102445144.564795
2,1,12,21, 0, 4, 0.00,60.00,WinterDesignDay
12,5331174.08185632
130,101513127.391745
2,1,12,21, 0, 5, 0.00,60.00,WinterDesignDay
12,5285810.62242628
130,101596637.261454
2,1,12,21, 0, 6, 0.00,60.00,WinterDesignDay
12,5452331.35709922
130,101568644.745222
2,1,12,21, 0, 7, 0.00,60.00,WinterDesignDay
12,6293714.24914056
130,103619748.829553
2,1,12,21, 0, 8, 0.00,60.00,WinterDesignDay
12,7321606.19943029
130,100732709.054279
2,1,12,21, 0, 9, 0.00,60.00,WinterDesignDay
12,7160777.78623284
130,101069050.786228
2,1,12,21, 0,10, 0.00,60.00,WinterDesignDay
12,6467751.00211388
130,101656102.408462
2,1,12,21, 0,11, 0.00,60.00,WinterDesignDay
12,6518880.15190442
130,104228902.610429
2,1,12,21, 0,12, 0.00,60.00,WinterDesignDay
12,6505880.11550736
130,101884202.429694
2,1,12,21, 0,13, 0.00,60.00,WinterDesignDay
12,6434996.72126858
130,101930110.953261
2,1,12,21, 0,14, 0.00,60.00,WinterDesignDay
12,6424536.98432816
130,101905626.190638
2,1,12,21, 0,15, 0.00,60.00,WinterDesignDay
12,6482732.63919777
130,101840408.069763
2,1,12,21, 0,16, 0.00,60.00,WinterDesignDay
12,6686632.19925543
130,101734638.262852
2,1,12,21, 0,17, 0.00,60.00,WinterDesignDay
12,7669604.5078372
130,101173308.132427
2,1,12,21, 0,18, 0.00,60.00,WinterDesignDay
12,9522032.69869917
130,102357386.924926
2,1,12,21, 0,19, 0.00,60.00,WinterDesignDay
12,10557241.2117046
130,98800630.6758439
2,1,12,21, 0,20, 0.00,60.00,WinterDesignDay
12,10495614.4943624
130,98437325.8379255
2,1,12,21, 0,21, 0.00,60.00,WinterDesignDay
12,9919243.43584883
130,98502854.9609534
2,1,12,21, 0,22, 0.00,60.00,WinterDesignDay
12,9343728.32371764
130,98697160.7945415
2,1,12,21, 0,23, 0.00,60.00,WinterDesignDay
12,8227378.30126568
130,99294382.6753847
2,1,12,21, 0,24, 0.00,60.00,WinterDesignDay
12,7113296.81738368
130,99970292.958655
1,DENVER CENTENNIAL  GOLDEN   N ANN HTG WIND 99.6% CONDNS WS=>MCDB,  39.74,-105.18,  -7.00,1829.00
2,1,12,21, 0, 1, 0.00,60.00,WinterDesignDay
12,4001848.89182573
130,49034141.472976
2,1,12,21, 0, 2, 0.00,60.00,WinterDesignDay
12,3597900.90540379
130,49446221.7973039
2,1,12,21, 0, 3, 0.00,60.00,WinterDesignDay
12,3423264.77984422
130,51332908.6482771
2,1,12,21, 0, 4, 0.00,60.00,WinterDesignDay
12,3373049.72010862
130,50400241.0109796
2,1,12,21, 0, 5, 0.00,60.00,WinterDesignDay
12,3327664.71970835
130,50483188.5971151
2,1,12,21, 0, 6, 0.00,60.00,WinterDesignDay
12,3494396.67335688
130,50460709.5261534
2,1,12,21, 0, 7, 0.00,60.00,WinterDesignDay
12,4266509.23311825
130,50703651.3238848
2,1,12,21, 0, 8, 0.00,60.00,WinterDesignDay
12,5366060.81334655
130,49687141.6307085
2,1,12,21, 0, 9, 0.00,60.00,WinterDesignDay
12,5205023.48004568
130,50018029.9248076
2,1,12,21, 0,10, 0.00,60.00,WinterDesignDay
12,4510768.38561218
130,50573018.9841251
2,1,12,21, 0,11, 0.00,60.00,WinterDesignDay
12,4491134.41156521
130,51298690.5872592
2,1,12,21, 0,12, 0.00,60.00,WinterDesignDay
12,4548283.53230376
130,50785092.6431456
2,1,12,21, 0,13, 0.00,60.00,WinterDesignDay
12,4477392.87844308
130,50830811.6689276
2,1,12,21, 0,14, 0.00,60.00,WinterDesignDay
12,4467055.73118209
130,50809526.8625893
2,1,12,21, 0,15, 0.00,60.00,WinterDesignDay
12,4525473.56344217
130,50750108.2342989
2,1,12,21, 0,16, 0.00,60.00,WinterDesignDay
12,4729737.61103524
130,50653852.6392266
2,1,12,21, 0,17, 0.00,60.00,WinterDesignDay
12,5713787.86554802
130,50120660.1128125
2,1,12,21, 0,18, 0.00,60.00,WinterDesignDay
12,7498488.4233073
130,49536845.668681
2,1,12,21, 0,19, 0.00,60.00,WinterDesignDay
12,8606309.56365166
130,47875495.5763711
2,1,12,21, 0,20, 0.00,60.00,WinterDesignDay
12,8545530.54993184
130,47534318.3314603
2,1,12,21, 0,21, 0.00,60.00,WinterDesignDay
12,7968629.00022018
130,47586000.0519116
2,1,12,21, 0,22, 0.00,60.00,WinterDesignDay
12,7392202.97144361
130,47756528.2440449
2,1,12,21, 0,23, 0.00,60.00,WinterDesignDay
12,6274272.30558585
130,48312490.617378
2,1,12,21, 0,24, 0.00,60.00,WinterDesignDay
12,5158354.4813691
130,48940466.9406201
1,DENVER CENTENNIAL  GOLDEN   N ANN HUM_N 99.6% CONDNS DP=>MCDB,  39.74,-105.18,  -7.00,1829.00
2,1,12,21, 0, 1, 0.00,60.00,WinterDesignDay
12,5143489.85643929
130,78834375.8461585
2,1,12,21, 0, 2, 0.00,60.00,WinterDesignDay
12,4740171.58895775
130,79262893.7131069
2,1,12,21, 0, 3, 0.00,60.00,WinterDesignDay
12,4565775.97661673
130,81155858.6764682
2,1,12,21, 0, 4, 0.00,60.00,WinterDesignDay
12,4515614.40069806
130,80224587.1263199
2,1,12,21, 0, 5, 0.00,60.00,WinterDesignDay
12,4470274.01074476
130,80308699.1781819
2,1,12,21, 0, 6, 0.00,60.00,WinterDesignDay
12,4636871.9746567
130,80282722.5754412
2,1,12,21, 0, 7, 0.00,60.00,WinterDesignDay
12,5467192.57429927
130,82045067.8324296
2,1,12,21, 0, 8, 0.00,60.00,WinterDesignDay
12,6506770.53214169
130,79463067.7103836
2,1,12,21, 0, 9, 0.00,60.00,WinterDesignDay
12,6345860.16062503
130,79797270.0857423
2,1,12,21, 0,10, 0.00,60.00,WinterDesignDay
12,5652649.52582049
130,80379522.6567075
2,1,12,21, 0,11, 0.00,60.00,WinterDesignDay
12,5692260.48105243
130,82651663.6251308
2,1,12,21, 0,12, 0.00,60.00,WinterDesignDay
12,5690506.23145389
130,80600512.0228848
2,1,12,21, 0,13, 0.00,60.00,WinterDesignDay
12,5619604.40761045
130,80645939.4787998
2,1,12,21, 0,14, 0.00,60.00,WinterDesignDay
12,5609168.57924882
130,80622078.8013964
2,1,12,21, 0,15, 0.00,60.00,WinterDesignDay
12,5667414.47796109
130,80558172.1946783
2,1,12,21, 0,16, 0.00,60.00,WinterDesignDay
12,5871398.97365952
130,80454619.4613307
2,1,12,21, 0,17, 0.00,60.00,WinterDesignDay
12,6854473.49901758
130,79895957.4936503
2,1,12,21, 0,18, 0.00,60.00,WinterDesignDay
12,8696312.08841178
130,80803616.1020115
2,1,12,21, 0,19, 0.00,60.00,WinterDesignDay
12,9743484.77166642
130,77559160.382218
2,1,12,21, 0,20, 0.00,60.00,WinterDesignDay
12,9681949.74612713
130,77198248.9738464
2,1,12,21, 0,21, 0.00,60.00,WinterDesignDay
12,9105332.86583398
130,77257361.4152104
2,1,12,21, 0,22, 0.00,60.00,WinterDesignDay
12,8529509.38979605
130,77443618.0310691
2,1,12,21, 0,23, 0.00,60.00,WinterDesignDay
12,7412699.5606719
130,78028837.5862928
2,1,12,21, 0,24, 0.00,60.00,WinterDesignDay
12,6298169.45574996
130,78693037.5223093
1,RUN PERIOD 1,  39.74,-105.18,  -7.00,1829.00
2,1, 1, 1, 0, 1, 0.00,60.00,Sunday
12,4456857.11263039
130,60223006.6454156
2,1, 1, 1, 0, 2, 0.00,60.00,Sunday
12,3997130.00432676
130,61868379.3399945
2,1, 1, 1, 0, 3, 0.00,60.00,Sunday
12,3785939.07880271
130,59787885.7465514
2,1, 1, 1, 0, 4, 0.00,60.00,Sunday
12,3648325.4470732
130,57681090.1665625
2,1, 1, 1, 0, 5, 0.00,60.00,Sunday
12,3594557.26253524
130,57502116.3407547
2,1, 1, 1, 0, 6, 0.00,60.00,Sunday
12,3658611.96700418
130,55193041.7512922
2,1, 1, 1, 0, 7, 0.00,60.00,Sunday
12,4459932.57590345
130,56790670.1443682
2,1, 1, 1, 0, 8, 0.00,60.00,Sunday
12,5491623.05191779
130,53913866.4475192
2,1, 1, 1, 0, 9, 0.00,60.00,Sunday
12,5163392.37002299
130,49025776.882988
2,1, 1, 1, 0,10, 0.00,60.00,Sunday
12,4421540.80775216
130,46874784.3958542
2,1, 1, 1, 0,11, 0.00,60.00,Sunday
12,4270113.27218637
130,43195286.0223844
2,1, 1, 1, 0,12, 0.00,60.00,Sunday
12,4293542.93417589
130,41255738.6510674
2,1, 1, 1, 0,13, 0.00,60.00,Sunday
12,4115089.67622214
130,38604731.5611691
2,1, 1, 1, 0,14, 0.00,60.00,Sunday
12,4185279.48741464
130,40850429.1354093
2,1, 1, 1, 0,15, 0.00,60.00,Sunday
12,4335147.54433607
130,43651411.6388574
2,1, 1, 1, 0,16, 0.00,60.00,Sunday
12,4572420.27034765
130,44076661.1963151
2,1, 1, 1, 0,17, 0.00,60.00,Sunday
12,5622394.24425092
130,45756505.4618391
2,1, 1, 1, 0,18, 0.00,60.00,Sunday
12,7561951.9842467
130,49595206.2971092
2,1, 1, 1, 0,19, 0.00,60.00,Sunday
12,8735802.26990809
130,50198030.9805764
2,1, 1, 1, 0,20, 0.00,60.00,Sunday
12,8969660.22681454
130,57785960.1095502
2,1, 1, 1, 0,21, 0.00,60.00,Sunday
12,8390443.78958867
130,57756051.4042442
2,1, 1, 1, 0,22, 0.00,60.00,Sunday
12,7889051.16412361
130,59575008.5748361
2,1, 1, 1, 0,23, 0.00,60.00,Sunday
12,6965715.5466396
130,65520415.0764783
2,1, 1, 1, 0,24, 0.00,60.00,Sunday
12,5881782.28283004
130,67750834.9690507
2,2, 1, 2, 0, 1, 0.00,60.00,Monday
12,4617979.74482228
130,66619672.1226018
2,2, 1, 2, 0, 2, 0.00,60.00,Monday
12,4281963.75042886
130,68354373.4502326
2,2, 1, 2, 0, 3, 0.00,60.00,Monday
12,4142610.37439902
130,69305644.7656234
2,2, 1, 2, 0, 4, 0.00,60.00,Monday
12,4177841.02602432
130,71623223.8541655
2,2, 1, 2, 0, 5, 0.00,60.00,Monday
12,4233591.54696542
130,74456002.7495468
2,2, 1, 2, 0, 6, 0.00,60.00,Monday
12,4595187.72424467
130,80080120.0549489
2,2, 1, 2, 0, 7, 0.00,60.00,Monday
12,5517325.41603822
130,85516673.8211241
2,2, 1, 2, 0, 8, 0.00,60.00,Monday
12,6566201.2633857
130,84206074.3587627
2,2, 1, 2, 0, 9, 0.00,60.00,Monday
12,6210584.09952344
130,79755975.3221474
2,2, 1, 2, 0,10, 0.00,60.00,Monday
12,5282853.13224606
130,74035304.9314885
2,2, 1, 2, 0,11, 0.00,60.00,Monday
12,5158412.07512849
130,71624747.6560186
2,2, 1, 2, 0,12, 0.00,60.00,Monday
12,4894868.35701688
130,62309958.058915
2,2, 1, 2, 0,13, 0.00,60.00,Monday
12,4621346.25657224
130,56698551.0590812
2,2, 1, 2, 0,14, 0.00,60.00,Monday
12,4545493.59540931
130,54695264.2662851
2,2, 1, 2, 0,15, 0.00,60.00,Monday
12,4534419.35841605
130,52613577.7436335
2,2, 1, 2, 0,16, 0.00,60.00,Monday
12,4847157.70217922
130,55268709.482671
2,2, 1, 2, 0,17, 0.00,60.00,Monday
12,5949072.88873973
130,57934647.8230981
2,2, 1, 2, 0,18, 0.00,60.00,Monday
12,7934616.88018638
130,62944115.1819904
2,2, 1, 2, 0,19, 0.00,60.00,Monday
12,9186381.83312802
130,65519591.714926
2,2, 1, 2, 0,20, 0.00,60.00,Monday
12,9385138.34076119
130,72266733.3601019
2,2, 1, 2, 0,21, 0.00,60.00,Monday
12,8797923.44096928
130,72022649.7846103
2,2, 1, 2, 0,22, 0.00,60.00,Monday
12,8270925.96622222
130,73212657.3725909
2,2, 1, 2, 0,23, 0.00,60.00,Monday
12,7258887.31334372
130,76102633.1306533
2,2, 1, 2, 0,24, 0.00,60.00,Monday
12,6186504.35842433
130,77323515.1862259
2,3, 1, 3, 0, 1, 0.00,60.00,Tuesday
12,5100916.74261294
130,79227406.4593428
2,3, 1, 3, 0, 2, 0.00,60.00,Tuesday
12,4761936.06182938
130,80883930.6888307
2,3, 1, 3, 0, 3, 0.00,60.00,Tuesday
12,4659467.40364211
130,82797634.6010399
2,3, 1, 3, 0, 4, 0.00,60.00,Tuesday
12,4691868.61315485
130,85041258.3061752
2,3, 1, 3, 0, 5, 0.00,60.00,Tuesday
12,4638324.60757882
130,85021308.1152851
2,3, 1, 3, 0, 6, 0.00,60.00,Tuesday
12,4804043.5237289
130,85533413.4506572
2,3, 1, 3, 0, 7, 0.00,60.00,Tuesday
12,5621072.17305119
130,88228520.2692341
2,3, 1, 3, 0, 8, 0.00,60.00,Tuesday
12,6752931.11551596
130,89085808.8101105
2,3, 1, 3, 0, 9, 0.00,60.00,Tuesday
12,6219065.30597853
130,79983404.8226202
2,3, 1, 3, 0,10, 0.00,60.00,Tuesday
12,5230793.85045658
130,72682133.1912518
2,3, 1, 3, 0,11, 0.00,60.00,Tuesday
12,5059952.15379343
130,69059687.2202799
2,3, 1, 3, 0,12, 0.00,60.00,Tuesday
12,4905963.12902251
130,62603856.8441906
2,3, 1, 3, 0,13, 0.00,60.00,Tuesday
12,4593257.65383956
130,55969009.77054
2,3, 1, 3, 0,14, 0.00,60.00,Tuesday
12,4397146.90154927
130,50826157.2413505
2,3, 1, 3, 0,15, 0.00,60.00,Tuesday
12,4303657.55703491
130,46592831.7126847
2,3, 1, 3, 0,16, 0.00,60.00,Tuesday
12,4475321.41236737
130,45565358.6426456
2,3, 1, 3, 0,17, 0.00,60.00,Tuesday
12,5628736.96852205
130,49575821.6577912
2,3, 1, 3, 0,18, 0.00,60.00,Tuesday
12,7751468.00096564
130,58166885.6042528
2,3, 1, 3, 0,19, 0.00,60.00,Tuesday
12,9025114.77694553
130,61314374.6983817
2,3, 1, 3, 0,20, 0.00,60.00,Tuesday
12,9144011.0645254
130,65977466.0578026
2,3, 1, 3, 0,21, 0.00,60.00,Tuesday
12,8664335.39146008
130,68540432.5688839
2,3, 1, 3, 0,22, 0.00,60.00,Tuesday
12,8144983.63863941
130,69929543.0613845
2,3, 1, 3, 0,23, 0.00,60.00,Tuesday
12,7074367.27028697
130,71289724.1176255
2,3, 1, 3, 0,24, 0.00,60.00,Tuesday
12,5997404.96711263
130,72390132.7691389
2,4, 1, 4, 0, 1, 0.00,60.00,Wednesday
12,4802168.03726942
130,71430780.7805849
2,4, 1, 4, 0, 2, 0.00,60.00,Wednesday
12,4433672.79896562
130,72316092.3937998
2,4, 1, 4, 0, 3, 0.00,60.00,Wednesday
12,4249080.61129382
130,72085758.6401002
2,4, 1, 4, 0, 4, 0.00,60.00,Wednesday
12,4269748.15000327
130,74023013.9244594
2,4, 1, 4, 0, 5, 0.00,60.00,Wednesday
12,4141952.00921615
130,72065054.0873608
2,4, 1, 4, 0, 6, 0.00,60.00,Wednesday
12,4342673.36651069
130,73491779.6696265
2,4, 1, 4, 0, 7, 0.00,60.00,Wednesday
12,5240017.36134382
130,78285526.0434922
2,4, 1, 4, 0, 8, 0.00,60.00,Wednesday
12,6249985.15552518
130,75962835.2549059
2,4, 1, 4, 0, 9, 0.00,60.00,Wednesday
12,5909639.64070924
130,71912397.0028551
2,4, 1, 4, 0,10, 0.00,60.00,Wednesday
12,4852265.01434311
130,62807019.3711428
2,4, 1, 4, 0,11, 0.00,60.00,Wednesday
12,4643807.23353887
130,58202001.4835749
2,4, 1, 4, 0,12, 0.00,60.00,Wednesday
12,4512932.66483371
130,52348796.9907425
2,4, 1, 4, 0,13, 0.00,60.00,Wednesday
12,4332881.78729064
130,49176006.0222448
2,4, 1, 4, 0,14, 0.00,60.00,Wednesday
12,4024419.90827168
130,41099992.3905519
2,4, 1, 4, 0,15, 0.00,60.00,Wednesday
12,3860395.90899136
130,35025148.2836035
2,4, 1, 4, 0,16, 0.00,60.00,Wednesday
12,3969978.99344293
130,32377045.8924843
2,4, 1, 4, 0,17, 0.00,60.00,Wednesday
12,5029240.28504481
130,33930009.7687466
2,4, 1, 4, 0,18, 0.00,60.00,Wednesday
12,7019881.04075935
130,39073715.5223599
2,4, 1, 4, 0,19, 0.00,60.00,Wednesday
12,8239119.08375975
130,40801790.7806453
2,4, 1, 4, 0,20, 0.00,60.00,Wednesday
12,8329254.47156675
130,44714674.5558096
2,4, 1, 4, 0,21, 0.00,60.00,Wednesday
12,7906376.50828808
130,48760178.2353749
2,4, 1, 4, 0,22, 0.00,60.00,Wednesday
12,7300049.84651313
130,47878532.8478771
2,4, 1, 4, 0,23, 0.00,60.00,Wednesday
12,6195271.16790426
130,48346243.9702545
2,4, 1, 4, 0,24, 0.00,60.00,Wednesday
12,5050336.31661467
130,47671440.9965265
2,5, 1, 5, 0, 1, 0.00,60.00,Thursday
12,3871143.46689766
130,47129835.5058252
2,5, 1, 5, 0, 2, 0.00,60.00,Thursday
12,3426701.54436546
130,46031942.3860104
2,5, 1, 5, 0, 3, 0.00,60.00,Thursday
12,3242377.73540724
130,45808257.7348385
2,5, 1, 5, 0, 4, 0.00,60.00,Thursday
12,3194377.5154712
130,45952991.5868437
2,5, 1, 5, 0, 5, 0.00,60.00,Thursday
12,3140060.95310217
130,45913250.6295106
2,5, 1, 5, 0, 6, 0.00,60.00,Thursday
12,3301427.1505742
130,46313620.6667943
2,5, 1, 5, 0, 7, 0.00,60.00,Thursday
12,4077620.05208882
130,47947086.7602052
2,5, 1, 5, 0, 8, 0.00,60.00,Thursday
12,5145548.19590784
130,47139048.4878125
2,5, 1, 5, 0, 9, 0.00,60.00,Thursday
12,4960843.34804048
130,47151789.1186136
2,5, 1, 5, 0,10, 0.00,60.00,Thursday
12,4210907.81186964
130,46071186.6769514
2,5, 1, 5, 0,11, 0.00,60.00,Thursday
12,3939213.54725759
130,39814841.866728
2,5, 1, 5, 0,12, 0.00,60.00,Thursday
12,3761576.19275693
130,32740273.7177321
2,5, 1, 5, 0,13, 0.00,60.00,Thursday
12,3465497.61048101
130,26538201.7525
2,5, 1, 5, 0,14, 0.00,60.00,Thursday
12,3453570.73597752
130,26202184.0526324
2,5, 1, 5, 0,15, 0.00,60.00,Thursday
12,3466027.23212706
130,24733660.7798049
2,5, 1, 5, 0,16, 0.00,60.00,Thursday
12,3550289.9634056
130,21424488.3906706
2,5, 1, 5, 0,17, 0.00,60.00,Thursday
12,4673150.96370288
130,24637798.123071
2,5, 1, 5, 0,18, 0.00,60.00,Thursday
12,6661774.43239399
130,29729435.0159095
2,5, 1, 5, 0,19, 0.00,60.00,Thursday
12,7923834.34793884
130,32576082.8110072
2,5, 1, 5, 0,20, 0.00,60.00,Thursday
12,8045058.65818024
130,37301000.4387185
2,5, 1, 5, 0,21, 0.00,60.00,Thursday
12,7542802.81771295
130,39274466.4635946
2,5, 1, 5, 0,22, 0.00,60.00,Thursday
12,7204901.56177232
130,45399070.3663035
2,5, 1, 5, 0,23, 0.00,60.00,Thursday
12,6113348.62514026
130,46211295.6190462
2,5, 1, 5, 0,24, 0.00,60.00,Thursday
12,5029333.5877356
130,47125777.5191091
2,6, 1, 6, 0, 1, 0.00,60.00,Friday
12,3869107.09512582
130,47078224.4531666
2,6, 1, 6, 0, 2, 0.00,60.00,Friday
12,3422960.18378889
130,45935072.621174
2,6, 1, 6, 0, 3, 0.00,60.00,Friday
12,3262244.1622401
130,46327269.9291099
2,6, 1, 6, 0, 4, 0.00,60.00,Friday
12,3108083.34804027
130,43700807.8119241
2,6, 1, 6, 0, 5, 0.00,60.00,Friday
12,3184067.62931934
130,47062486.1863408
2,6, 1, 6, 0, 6, 0.00,60.00,Friday
12,3304339.59561011
130,46391086.042601
2,6, 1, 6, 0, 7, 0.00,60.00,Friday
12,4083509.99628213
130,48104353.7256482
2,6, 1, 6, 0, 8, 0.00,60.00,Friday
12,5165894.58084221
130,47675340.655863
2,6, 1, 6, 0, 9, 0.00,60.00,Friday
12,4835533.74940122
130,43886515.5782348
2,6, 1, 6, 0,10, 0.00,60.00,Friday
12,3826387.68874442
130,36039451.5683574
2,6, 1, 6, 0,11, 0.00,60.00,Friday
12,3459568.57272529
130,27299412.4274982
2,6, 1, 6, 0,12, 0.00,60.00,Friday
12,3178290.70689881
130,17518817.5599262
2,6, 1, 6, 0,13, 0.00,60.00,Friday
12,2894429.28438113
130,11635050.9021959
2,6, 1, 6, 0,14, 0.00,60.00,Friday
12,2817475.30096643
130,9601189.06962617
2,6, 1, 6, 0,15, 0.00,60.00,Friday
12,2824875.76561633
130,8000349.88116789
2,6, 1, 6, 0,16, 0.00,60.00,Friday
12,3004821.28539274
130,7188652.53146343
2,6, 1, 6, 0,17, 0.00,60.00,Friday
12,4220744.62365114
130,12831366.2539437
2,6, 1, 6, 0,18, 0.00,60.00,Friday
12,6364953.41839864
130,21984815.1695487
2,6, 1, 6, 0,19, 0.00,60.00,Friday
12,7875218.60245063
130,31311141.4433312
2,6, 1, 6, 0,20, 0.00,60.00,Friday
12,8095895.66026486
130,38632583.1235169
2,6, 1, 6, 0,21, 0.00,60.00,Friday
12,7739995.32622691
130,44426321.1663445
2,6, 1, 6, 0,22, 0.00,60.00,Friday
12,7310634.19161838
130,48163108.6069322
2,6, 1, 6, 0,23, 0.00,60.00,Friday
12,6351845.53045777
130,52440177.2029042
2,6, 1, 6, 0,24, 0.00,60.00,Friday
12,5301428.78056471
130,54230789.7423307
2,7, 1, 7, 0, 1, 0.00,60.00,Saturday
12,4230915.10647189
130,55835899.3263611
2,7, 1, 7, 0, 2, 0.00,60.00,Saturday
12,3898086.42110393
130,57924456.1749027
2,7, 1, 7, 0, 3, 0.00,60.00,Saturday
12,3771465.6984531
130,59346030.9598252
2,7, 1, 7, 0, 4, 0.00,60.00,Saturday
12,3632547.92855878
130,57244021.4611018
2,7, 1, 7, 0, 5, 0.00,60.00,Saturday
12,3603882.89252204
130,57740721.8315396
2,7, 1, 7, 0, 6, 0.00,60.00,Saturday
12,3695136.72307505
130,56153048.616557
2,7, 1, 7, 0, 7, 0.00,60.00,Saturday
12,4365647.37275467
130,54350776.2714905
2,7, 1, 7, 0, 8, 0.00,60.00,Saturday
12,5429133.34211992
130,52314727.3934868
2,7, 1, 7, 0, 9, 0.00,60.00,Saturday
12,5015121.13424196
130,45190598.8298472
2,7, 1, 7, 0,10, 0.00,60.00,Saturday
12,3972890.6645336
130,35197019.9916236
2,7, 1, 7, 0,11, 0.00,60.00,Saturday
12,3614639.36087066
130,26114773.9151542
2,7, 1, 7, 0,12, 0.00,60.00,Saturday
12,3343460.6664127
130,16480735.2737855
2,7, 1, 7, 0,13, 0.00,60.00,Saturday
12,3042443.99024018
130,10626750.3625923
2,7, 1, 7, 0,14, 0.00,60.00,Saturday
12,2908564.96256158
130,7542894.21896235
2,7, 1, 7, 0,15, 0.00,60.00,Saturday
12,2898021.90132699
130,6154573.76057395
2,7, 1, 7, 0,16, 0.00,60.00,Saturday
12,3248379.32577301
130,9530866.15002089
2,7, 1, 7, 0,17, 0.00,60.00,Saturday
12,4359762.66919993
130,12814912.929152
2,7, 1, 7, 0,18, 0.00,60.00,Saturday
12,6538827.04867269
130,22908986.2381163
2,7, 1, 7, 0,19, 0.00,60.00,Saturday
12,7968236.94635062
130,30187511.7767878
2,7, 1, 7, 0,20, 0.00,60.00,Saturday
12,8242954.56857196
130,38845161.3957211
2,7, 1, 7, 0,21, 0.00,60.00,Saturday
12,7885148.06778157
130,44594444.9180236
2,7, 1, 7, 0,22, 0.00,60.00,Saturday
12,7421661.76422632
130,47400141.1209291
2,7, 1, 7, 0,23, 0.00,60.00,Saturday
12,6356315.15938137
130,49634304.6837878
2,7, 1, 7, 0,24, 0.00,60.00,Saturday
12,5267908.10682442
130,51742472.3144503
2,8, 1, 8, 0, 1, 0.00,60.00,Sunday
12,4134849.29835661
130,53329764.5504117
2,8, 1, 8, 0, 2, 0.00,60.00,Sunday
12,3740735.32253572
130,53817872.7838345
2,8, 1, 8, 0, 3, 0.00,60.00,Sunday
12,3530249.39723828
130,53049985.0181649
2,8, 1, 8, 0, 4, 0.00,60.00,Sunday
12,3479949.63403128
130,53261086.6457087
2,8, 1, 8, 0, 5, 0.00,60.00,Sunday
12,3452031.0604863
130,53777442.7908924
2,8, 1, 8, 0, 6, 0.00,60.00,Sunday
12,3614367.965107
130,54046121.5090142
2,8, 1, 8, 0, 7, 0.00,60.00,Sunday
12,4452427.96110347
130,56619375.2511297
2,8, 1, 8, 0, 8, 0.00,60.00,Sunday
12,5558121.82813917
130,55686679.5315348
2,8, 1, 8, 0, 9, 0.00,60.00,Sunday
12,5294409.60611253
130,52486292.9260245
2,8, 1, 8, 0,10, 0.00,60.00,Sunday
12,4554347.88069973
130,50379937.5003581
2,8, 1, 8, 0,11, 0.00,60.00,Sunday
12,4595698.12720095
130,51727860.4929129
2,8, 1, 8, 0,12, 0.00,60.00,Sunday
12,4594425.48643488
130,49138507.2251623
2,8, 1, 8, 0,13, 0.00,60.00,Sunday
12,4482537.45092582
130,48220769.9691806
2,8, 1, 8, 0,14, 0.00,60.00,Sunday
12,4294190.24703011
130,43714708.345517
2,8, 1, 8, 0,15, 0.00,60.00,Sunday
12,4116649.29376091
130,37966920.6620301
2,8, 1, 8, 0,16, 0.00,60.00,Sunday
12,4231085.42005527
130,35184838.7853862
2,8, 1, 8, 0,17, 0.00,60.00,Sunday
12,5332854.06306365
130,38218103.8789751
2,8, 1, 8, 0,18, 0.00,60.00,Sunday
12,7440890.84802707
130,46458691.1408375
2,8, 1, 8, 0,19, 0.00,60.00,Sunday
12,8754928.07338732
130,50726391.8965076
2,8, 1, 8, 0,20, 0.00,60.00,Sunday
12,8883712.3180213