Program Version,EnergyPlus, Version 9.2.0-921312fa1d, YMD=2019.10.18 18:59
1,5,Environment Title[],Latitude[deg],Longitude[deg],Time Zone[],Elevation[m]
2,8,Day of Simulation[],Month[],Day of Month[],DST Indicator[1=yes 0=no],Hour[],StartMinute[],EndMinute[],DayType
3,5,Cumulative Day of Simulation[],Month[],Day of Month[],DST Indicator[1=yes 0=no],DayType  ! When Daily Meters Requested
4,2,Cumulative Days of Simulation[],Month[]  ! When Monthly Meters Requested
5,1,Cumulative Days of Simulation[] ! When Run Period Meters Requested
6,1,Calendar Year of Simulation[] ! When Annual Meters Requested
12,1,Electricity:Facility [J] !Hourly
613,1,Gas:Facility [J] !Hourly
End of Data Dictionary
1,RUN PERIOD 1,  39.83,-104.65,  -7.00,1650.00
2,1, 1, 1, 0, 1, 0.00,60.00,Monday
12,3034556.050286021
613,31495255.971533
2,1, 1, 1, 0, 2, 0.00,60.00,Monday
12,2742812.1499475457
613,31252277.66424096
2,1, 1, 1, 0, 3, 0.00,60.00,Monday
12,2628258.513396797
613,30975331.976805327
2,1, 1, 1, 0, 4, 0.00,60.00,Monday
12,2568163.4625663727
613,30944165.8534082
2,1, 1, 1, 0, 5, 0.00,60.00,Monday
12,2500176.170746641
613,30525394.325104089
2,1, 1, 1, 0, 6, 0.00,60.00,Monday
12,2885583.2809204536
613,29170985.84359962
2,1, 1, 1, 0, 7, 0.00,60.00,Monday
12,3849652.119657343
613,27884291.14087391
2,1, 1, 1, 0, 8, 0.00,60.00,Monday
12,5625032.653599744
613,26081018.099253607
2,1, 1, 1, 0, 9, 0.00,60.00,Monday
12,10625841.085967679
613,23419222.698731208
2,1, 1, 1, 0,10, 0.00,60.00,Monday
12,3960076.6384519126
613,17109746.509202839
2,1, 1, 1, 0,11, 0.00,60.00,Monday
12,3933104.7688106775
613,12739301.368931715
2,1, 1, 1, 0,12, 0.00,60.00,Monday
12,5079343.013264935
613,10043252.818673293
2,1, 1, 1, 0,13, 0.00,60.00,Monday
12,5043593.003778552
613,8874672.436486677
2,1, 1, 1, 0,14, 0.00,60.00,Monday
12,3813750.0573547726
613,8595799.795971023
2,1, 1, 1, 0,15, 0.00,60.00,Monday
12,5060052.811308147
613,7444439.870655492
2,1, 1, 1, 0,16, 0.00,60.00,Monday
12,5512270.273449664
613,7719449.610884209
2,1, 1, 1, 0,17, 0.00,60.00,Monday
12,4800498.603694296
613,10539263.749619283
2,1, 1, 1, 0,18, 0.00,60.00,Monday
12,7434308.44213917
613,12709512.389716248
2,1, 1, 1, 0,19, 0.00,60.00,Monday
12,16533084.6921338
613,15474563.593712032
2,1, 1, 1, 0,20, 0.00,60.00,Monday
12,6801326.6278726
613,16200814.242661572
2,1, 1, 1, 0,21, 0.00,60.00,Monday
12,6365140.098627351
613,17011053.848601127
2,1, 1, 1, 0,22, 0.00,60.00,Monday
12,6901494.139998911
613,18072131.79558554
2,1, 1, 1, 0,23, 0.00,60.00,Monday
12,5006524.677318446
613,19357588.35226757
2,1, 1, 1, 0,24, 0.00,60.00,Monday
12,3680325.8463282908
613,20693795.566949388
2,2, 1, 2, 0, 1, 0.00,60.00,Tuesday
12,2845794.247343753
613,21882220.298399949
2,2, 1, 2, 0, 2, 0.00,60.00,Tuesday
12,2576992.453930421
613,22807610.214183663
2,2, 1, 2, 0, 3, 0.00,60.00,Tuesday
12,2470527.6315050486
613,22942601.99253059
2,2, 1, 2, 0, 4, 0.00,60.00,Tuesday
12,3578833.9261836509
613,24622578.66827706
2,2, 1, 2, 0, 5, 0.00,60.00,Tuesday
12,2368564.070990687
613,23822810.485316937
2,2, 1, 2, 0, 6, 0.00,60.00,Tuesday
12,2786303.520477197
613,24114984.76771977
2,2, 1, 2, 0, 7, 0.00,60.00,Tuesday
12,3744324.697583802
613,22520301.975853255
2,2, 1, 2, 0, 8, 0.00,60.00,Tuesday
12,5548542.411247739
613,20321297.862862395
2,2, 1, 2, 0, 9, 0.00,60.00,Tuesday
12,4128003.7570328104
613,18580101.672738218
2,2, 1, 2, 0,10, 0.00,60.00,Tuesday
12,5165284.169751833
613,13206962.986343846
2,2, 1, 2, 0,11, 0.00,60.00,Tuesday
12,5643778.379232843
613,8362738.427145944
2,2, 1, 2, 0,12, 0.00,60.00,Tuesday
12,4456157.140004545
613,5739334.971727126
2,2, 1, 2, 0,13, 0.00,60.00,Tuesday
12,3726565.3403872966
613,4469069.356614923
2,2, 1, 2, 0,14, 0.00,60.00,Tuesday
12,3724146.8996471019
613,4032597.188011992
2,2, 1, 2, 0,15, 0.00,60.00,Tuesday
12,3591614.166476971
613,2407648.622739808
2,2, 1, 2, 0,16, 0.00,60.00,Tuesday
12,5100947.559693011
613,3239034.1774771187
2,2, 1, 2, 0,17, 0.00,60.00,Tuesday
12,4681076.707860314
613,4457488.057127264
2,2, 1, 2, 0,18, 0.00,60.00,Tuesday
12,7207681.934099761
613,5680900.087555416
2,2, 1, 2, 0,19, 0.00,60.00,Tuesday
12,6756831.535793753
613,8093061.429334702
2,2, 1, 2, 0,20, 0.00,60.00,Tuesday
12,6667216.74283557
613,9371026.177037707
2,2, 1, 2, 0,21, 0.00,60.00,Tuesday
12,6253915.913759319
613,11346761.390139347
2,2, 1, 2, 0,22, 0.00,60.00,Tuesday
12,5589422.56131265
613,11713876.836102143
2,2, 1, 2, 0,23, 0.00,60.00,Tuesday
12,4853363.496285785
613,11557578.636019642
2,2, 1, 2, 0,24, 0.00,60.00,Tuesday
12,9296470.774775463
613,13672979.154037398
2,3, 1, 3, 0, 1, 0.00,60.00,Wednesday
12,3333559.232311714
613,15118055.002630536
2,3, 1, 3, 0, 2, 0.00,60.00,Wednesday
12,2446416.5449478516
613,16157796.260641786
2,3, 1, 3, 0, 3, 0.00,60.00,Wednesday
12,2357507.5371704378
613,17186849.60150385
2,3, 1, 3, 0, 4, 0.00,60.00,Wednesday
12,2319571.2131098255
613,18284156.65217657
2,3, 1, 3, 0, 5, 0.00,60.00,Wednesday
12,2272129.7581190976
613,18911718.965216385
2,3, 1, 3, 0, 6, 0.00,60.00,Wednesday
12,3816548.131532551
613,18791034.4034385
2,3, 1, 3, 0, 7, 0.00,60.00,Wednesday
12,3660398.6418588755
613,18246216.03784266
2,3, 1, 3, 0, 8, 0.00,60.00,Wednesday
12,4298216.90833763
613,17594092.31833815
2,3, 1, 3, 0, 9, 0.00,60.00,Wednesday
12,4032220.0071043267
613,13702141.245275114
2,3, 1, 3, 0,10, 0.00,60.00,Wednesday
12,16527960.181168285
613,11387115.160270375
2,3, 1, 3, 0,11, 0.00,60.00,Wednesday
12,14284162.537921245
613,8242127.678647454
2,3, 1, 3, 0,12, 0.00,60.00,Wednesday
12,4169479.9353141516
613,5481925.7574970149
2,3, 1, 3, 0,13, 0.00,60.00,Wednesday
12,3733480.617388007
613,4821242.325198822
2,3, 1, 3, 0,14, 0.00,60.00,Wednesday
12,3748737.908993652
613,5284938.744418049
2,3, 1, 3, 0,15, 0.00,60.00,Wednesday
12,4968955.685299319
613,5529655.075987032
2,3, 1, 3, 0,16, 0.00,60.00,Wednesday
12,4010577.4012425465
613,8337697.676949113
2,3, 1, 3, 0,17, 0.00,60.00,Wednesday
12,4817265.019673955
613,11393123.759487573
2,3, 1, 3, 0,18, 0.00,60.00,Wednesday
12,6198317.609715309
613,14096076.497368733
2,3, 1, 3, 0,19, 0.00,60.00,Wednesday
12,8101656.316665169
613,14378753.936366069
2,3, 1, 3, 0,20, 0.00,60.00,Wednesday
12,17193160.206908008
613,15562765.508156106
2,3, 1, 3, 0,21, 0.00,60.00,Wednesday
12,6775851.675058024
613,18497309.86290278
2,3, 1, 3, 0,22, 0.00,60.00,Wednesday
12,5767804.480149836
613,20798298.16761621
2,3, 1, 3, 0,23, 0.00,60.00,Wednesday
12,5088971.814318205
613,23556357.683628385
2,3, 1, 3, 0,24, 0.00,60.00,Wednesday
12,4960303.478768795
613,25988695.88599516
2,4, 1, 4, 0, 1, 0.00,60.00,Thursday
12,2970805.6919966435
613,28248653.857872148
2,4, 1, 4, 0, 2, 0.00,60.00,Thursday
12,3934702.1721644725
613,31971825.922807576
2,4, 1, 4, 0, 3, 0.00,60.00,Thursday
12,2672519.8991758485
613,33229422.97299305
2,4, 1, 4, 0, 4, 0.00,60.00,Thursday
12,2608866.5469631615
613,33017043.92626995
2,4, 1, 4, 0, 5, 0.00,60.00,Thursday
12,2555663.6590453695
613,33351194.863740457
2,4, 1, 4, 0, 6, 0.00,60.00,Thursday
12,4093960.8150436955
613,32917377.811678977
2,4, 1, 4, 0, 7, 0.00,60.00,Thursday
12,3917040.7643618949
613,31316179.560095457
2,4, 1, 4, 0, 8, 0.00,60.00,Thursday
12,5422864.925549019
613,27752984.50826763
2,4, 1, 4, 0, 9, 0.00,60.00,Thursday
12,15639468.826970624
613,25106237.566637838
2,4, 1, 4, 0,10, 0.00,60.00,Thursday
12,5613692.906039462
613,20071773.40785072
2,4, 1, 4, 0,11, 0.00,60.00,Thursday
12,5157072.833774351
613,17151361.122743835
2,4, 1, 4, 0,12, 0.00,60.00,Thursday
12,9120044.515697599
613,16082421.442088867
2,4, 1, 4, 0,13, 0.00,60.00,Thursday
12,3893175.340348761
613,12953984.462136077
2,4, 1, 4, 0,14, 0.00,60.00,Thursday
12,3864920.465513886
613,11201745.232891778
2,4, 1, 4, 0,15, 0.00,60.00,Thursday
12,4921967.023059833
613,9371860.90765138
2,4, 1, 4, 0,16, 0.00,60.00,Thursday
12,4701844.913605435
613,9503531.802979952
2,4, 1, 4, 0,17, 0.00,60.00,Thursday
12,5096504.043050387
613,9495317.578873182
2,4, 1, 4, 0,18, 0.00,60.00,Thursday
12,6094006.6947645139
613,8783854.793140661
2,4, 1, 4, 0,19, 0.00,60.00,Thursday
12,6765912.641665667
613,8555533.144149319
2,4, 1, 4, 0,20, 0.00,60.00,Thursday
12,9326354.879239383
613,7812083.178193621
2,4, 1, 4, 0,21, 0.00,60.00,Thursday
12,7329307.6009641089
613,8321066.205048463
2,4, 1, 4, 0,22, 0.00,60.00,Thursday
12,5531508.310807483
613,8764489.049955549
2,4, 1, 4, 0,23, 0.00,60.00,Thursday
12,6047648.235619564
613,9626911.713033295
2,4, 1, 4, 0,24, 0.00,60.00,Thursday
12,3250634.7594457676
613,7977826.085564516
2,5, 1, 5, 0, 1, 0.00,60.00,Friday
12,2631454.9640236075
613,10966605.25026164
2,5, 1, 5, 0, 2, 0.00,60.00,Friday
12,2117982.5918750658
613,8598529.164484276
2,5, 1, 5, 0, 3, 0.00,60.00,Friday
12,2319608.02839927
613,8413021.698947892
2,5, 1, 5, 0, 4, 0.00,60.00,Friday
12,2960016.5374842125
613,9125141.428023899
2,5, 1, 5, 0, 5, 0.00,60.00,Friday
12,2079390.125759696
613,9096105.14601506
2,5, 1, 5, 0, 6, 0.00,60.00,Friday
12,6378917.423352934
613,8729151.947037617
2,5, 1, 5, 0, 7, 0.00,60.00,Friday
12,13853810.007678554
613,11282933.790189183
2,5, 1, 5, 0, 8, 0.00,60.00,Friday
12,4053823.98118742
613,6708336.804992393
2,5, 1, 5, 0, 9, 0.00,60.00,Friday
12,3840679.839033203
613,3947612.310897641
2,5, 1, 5, 0,10, 0.00,60.00,Friday
12,3444109.2386857059
613,0.0
2,5, 1, 5, 0,11, 0.00,60.00,Friday
12,20327363.67518792
613,0.0
2,5, 1, 5, 0,12, 0.00,60.00,Friday
12,15300860.471028177
613,0.0
2,5, 1, 5, 0,13, 0.00,60.00,Friday
12,4762061.94391481
613,0.0
2,5, 1, 5, 0,14, 0.00,60.00,Friday
12,4648472.648997716
613,0.0
2,5, 1, 5, 0,15, 0.00,60.00,Friday
12,3544337.5193976296
613,0.0
2,5, 1, 5, 0,16, 0.00,60.00,Friday
12,3846858.166299197
613,0.0
2,5, 1, 5, 0,17, 0.00,60.00,Friday
12,4593549.363651183
613,0.0
2,5, 1, 5, 0,18, 0.00,60.00,Friday
12,8485029.54451882
613,0.0
2,5, 1, 5, 0,19, 0.00,60.00,Friday
12,6627016.831172026
613,1482013.182420202
2,5, 1, 5, 0,20, 0.00,60.00,Friday
12,9469133.974314619
613,2920417.835909241
2,5, 1, 5, 0,21, 0.00,60.00,Friday
12,7493455.2203138819
613,5020555.572224932
2,5, 1, 5, 0,22, 0.00,60.00,Friday
12,8674621.527003695
613,7004595.415003478
2,5, 1, 5, 0,23, 0.00,60.00,Friday
12,4781230.165708972
613,7884058.520994687
2,5, 1, 5, 0,24, 0.00,60.00,Friday
12,3470775.048211001
613,10022042.77461611
2,6, 1, 6, 0, 1, 0.00,60.00,Saturday
12,2643613.064169897
613,11585778.454808508
2,6, 1, 6, 0, 2, 0.00,60.00,Saturday
12,5077467.751919502
613,12259907.697605037
2,6, 1, 6, 0, 3, 0.00,60.00,Saturday
12,3416512.299742638
613,13327602.527596567
2,6, 1, 6, 0, 4, 0.00,60.00,Saturday
12,2247884.773622961
613,14633395.272884775
2,6, 1, 6, 0, 5, 0.00,60.00,Saturday
12,2209383.637628458
613,15716259.474867559
2,6, 1, 6, 0, 6, 0.00,60.00,Saturday
12,18105317.86167642
613,16945968.86312993
2,6, 1, 6, 0, 7, 0.00,60.00,Saturday
12,6147249.567292789
613,16483799.367631067
2,6, 1, 6, 0, 8, 0.00,60.00,Saturday
12,4270101.537088705
613,16162266.267905914
2,6, 1, 6, 0, 9, 0.00,60.00,Saturday
12,4023433.088557438
613,13254651.551218791
2,6, 1, 6, 0,10, 0.00,60.00,Saturday
12,6472745.741589265
613,11029443.86068136
2,6, 1, 6, 0,11, 0.00,60.00,Saturday
12,3859820.113761603
613,9007147.97614247
2,6, 1, 6, 0,12, 0.00,60.00,Saturday
12,6038776.757973675
613,6296596.928116613
2,6, 1, 6, 0,13, 0.00,60.00,Saturday
12,11337624.44300307
613,5260089.456915273
2,6, 1, 6, 0,14, 0.00,60.00,Saturday
12,6335411.293892057
613,5654375.614050279
2,6, 1, 6, 0,15, 0.00,60.00,Saturday
12,3811337.4937216776
613,4430630.793426591
2,6, 1, 6, 0,16, 0.00,60.00,Saturday
12,5140190.581748099
613,4915752.639126589
2,6, 1, 6, 0,17, 0.00,60.00,Saturday
12,4759266.556331052
613,8439447.282511274
2,6, 1, 6, 0,18, 0.00,60.00,Saturday
12,8715539.64452881
613,10089101.854911572
2,6, 1, 6, 0,19, 0.00,60.00,Saturday
12,11847301.1296423
613,12079839.73202027
2,6, 1, 6, 0,20, 0.00,60.00,Saturday
12,7988465.3022250649
613,13875771.532833232
2,6, 1, 6, 0,21, 0.00,60.00,Saturday
12,10457672.545338098
613,15489334.975007639
2,6, 1, 6, 0,22, 0.00,60.00,Saturday
12,24834286.95870494
613,18381175.790763506
2,6, 1, 6, 0,23, 0.00,60.00,Saturday
12,7517411.952806077
613,19689384.59708548
2,6, 1, 6, 0,24, 0.00,60.00,Saturday
12,4850380.86195711
613,22193692.598939774
2,7, 1, 7, 0, 1, 0.00,60.00,Sunday
12,2883020.200585367
613,23778019.188324024
2,7, 1, 7, 0, 2, 0.00,60.00,Sunday
12,2603494.949447742
613,24157297.655519345
2,7, 1, 7, 0, 3, 0.00,60.00,Sunday
12,2551234.7763415796
613,27052759.080972773
2,7, 1, 7, 0, 4, 0.00,60.00,Sunday
12,5385071.323153473
613,29167789.61060471
2,7, 1, 7, 0, 5, 0.00,60.00,Sunday
12,15667287.155891277
613,31912189.536509564
2,7, 1, 7, 0, 6, 0.00,60.00,Sunday
12,3155200.374252388
613,31057086.144169094
2,7, 1, 7, 0, 7, 0.00,60.00,Sunday
12,9153365.206665544
613,31281700.593742629
2,7, 1, 7, 0, 8, 0.00,60.00,Sunday
12,5579635.034997588
613,23061652.974775834
2,7, 1, 7, 0, 9, 0.00,60.00,Sunday
12,4184712.390866725
613,21468091.252848276
2,7, 1, 7, 0,10, 0.00,60.00,Sunday
12,8218698.49472966
613,19966080.286032909
2,7, 1, 7, 0,11, 0.00,60.00,Sunday
12,4281399.447135415
613,17797060.468023629
2,7, 1, 7, 0,12, 0.00,60.00,Sunday
12,4038717.1826234657
613,15562915.612061073
2,7, 1, 7, 0,13, 0.00,60.00,Sunday
12,5327999.51091948
613,14336460.124587078
2,7, 1, 7, 0,14, 0.00,60.00,Sunday
12,3931035.8418966487
613,13896298.141452272
2,7, 1, 7, 0,15, 0.00,60.00,Sunday
12,3986408.2881622829
613,13346427.135952589
2,7, 1, 7, 0,16, 0.00,60.00,Sunday
12,4107523.802014896
613,13274868.198103156
2,7, 1, 7, 0,17, 0.00,60.00,Sunday
12,11315254.81662355
613,12812707.174529612
2,7, 1, 7, 0,18, 0.00,60.00,Sunday
12,9338083.475347989
613,11305673.403576203
2,7, 1, 7, 0,19, 0.00,60.00,Sunday
12,6802575.28896886
613,10422644.661964588
2,7, 1, 7, 0,20, 0.00,60.00,Sunday
12,6689059.901550744
613,10483428.47808527
2,7, 1, 7, 0,21, 0.00,60.00,Sunday
12,6264586.758085654
613,11890193.406429623
2,7, 1, 7, 0,22, 0.00,60.00,Sunday
12,6856448.001506672
613,13943943.754972952
2,7, 1, 7, 0,23, 0.00,60.00,Sunday
12,6043811.350396656
613,14226804.205421735
2,7, 1, 7, 0,24, 0.00,60.00,Sunday
12,3545511.9537930355
613,13828154.648210634
2,8, 1, 8, 0, 1, 0.00,60.00,Monday
12,2702371.7305394767
613,14578169.643661723
2,8, 1, 8, 0, 2, 0.00,60.00,Monday
12,3568590.7138808725
613,15511507.09049702
2,8, 1, 8, 0, 3, 0.00,60.00,Monday
12,2355760.9629749518
613,17097902.156706878
2,8, 1, 8, 0, 4, 0.00,60.00,Monday
12,2337683.069719364
613,19206535.655662866
2,8, 1, 8, 0, 5, 0.00,60.00,Monday
12,2302104.7340949086
613,20438248.744362989
2,8, 1, 8, 0, 6, 0.00,60.00,Monday
12,2707754.8645037955
613,20114752.62234283
2,8, 1, 8, 0, 7, 0.00,60.00,Monday
12,3711907.5431684169
613,20869399.849685957
2,8, 1, 8, 0, 8, 0.00,60.00,Monday
12,5477480.529279189
613,18555564.10331977
2,8, 1, 8, 0, 9, 0.00,60.00,Monday
12,10417775.435441092
613,11996646.825395773
2,8, 1, 8, 0,10, 0.00,60.00,Monday
12,3777215.384209539
613,7797206.933579986
2,8, 1, 8, 0,11, 0.00,60.00,Monday
12,3794941.150271445
613,5703069.604643023
2,8, 1, 8, 0,12, 0.00,60.00,Monday
12,4956833.196734326
613,3799294.442453942
2,8, 1, 8, 0,13, 0.00,60.00,Monday
12,4710033.656033191
613,1005048.9064556268
2,8, 1, 8, 0,14, 0.00,60.00,Monday
12,3464962.722907126
613,0.0
2,8, 1, 8, 0,15, 0.00,60.00,Monday
12,4914346.116846317
613,0.0
2,8, 1, 8, 0,16, 0.00,60.00,Monday
12,5361485.9957247269
613,0.0
2,8, 1, 8, 0,17, 0.00,60.00,Monday
12,4626150.879524194
613,1660291.066309168
2,8, 1, 8, 0,18, 0.00,60.00,Monday
12,7313705.181698204
613,6510254.175608262
2,8, 1, 8, 0,19, 0.00,60.00,Monday
12,16494128.387652994
613,8040037.164864629
2,8, 1, 8, 0,20, 0.00,60.00,Monday
12,6669491.4262817469
613,9486868.539063989
2,8, 1, 8, 0,21, 0.00,60.00,Monday
12,6227078.124275689
613,9979998.498109337
2,8, 1, 8, 0,22, 0.00,60.00,Monday
12,6784096.512136404
613,12069611.257962816
2,8, 1, 8, 0,23, 0.00,60.00,Monday
12,4877755.352834477
613,12799777.97657285
2,8, 1, 8, 0,24, 0.00,60.00,Monday
12,3574604.3092865606
613,15309735.385497079
2,9, 1, 9, 0, 1, 0.00,60.00,Tuesday
12,2755256.8591554549
613,17271440.316219976
2,9, 1, 9, 0, 2, 0.00,60.00,Tuesday
12,2487735.387940035
613,18262032.951885538
2,9, 1, 9, 0, 3, 0.00,60.00,Tuesday
12,2395531.722103342
613,19123299.88172083
2,9, 1, 9, 0, 4, 0.00,60.00,Tuesday
12,2349857.7183426308
613,19826551.621282344
2,9, 1, 9, 0, 5, 0.00,60.00,Tuesday
12,3441697.470659671
613,20680846.677156517
2,9, 1, 9, 0, 6, 0.00,60.00,Tuesday
12,2718840.04968129
613,20679285.694678096
2,9, 1, 9, 0, 7, 0.00,60.00,Tuesday
12,3719515.2804316275
613,21256837.607553934
2,9, 1, 9, 0, 8, 0.00,60.00,Tuesday
12,5498797.126225628
613,17755232.28977882
2,9, 1, 9, 0, 9, 0.00,60.00,Tuesday
12,4020686.2158195825
613,13114762.096853702
2,9, 1, 9, 0,10, 0.00,60.00,Tuesday
12,5096702.861847603
613,9630782.665629268
2,9, 1, 9, 0,11, 0.00,60.00,Tuesday
12,5058769.105581124
613,7406725.050445088
2,9, 1, 9, 0,12, 0.00,60.00,Tuesday
12,4984161.46364498
613,5916365.808157247
2,9, 1, 9, 0,13, 0.00,60.00,Tuesday
12,3735887.9109754625
613,4943838.098131696
2,9, 1, 9, 0,14, 0.00,60.00,Tuesday
12,3724224.032085284
613,4036525.2967090045
2,9, 1, 9, 0,15, 0.00,60.00,Tuesday
12,3773304.4757694529
613,2493730.6757504229
2,9, 1, 9, 0,16, 0.00,60.00,Tuesday
12,5087534.557377795
613,2522774.455743214
2,9, 1, 9, 0,17, 0.00,60.00,Tuesday
12,4698324.8046976369
613,5335878.534471615
2,9, 1, 9, 0,18, 0.00,60.00,Tuesday
12,7246109.2827571979
613,7614251.098089848
2,9, 1, 9, 0,19, 0.00,60.00,Tuesday
12,6771530.003449792
613,8841607.436606652
2,9, 1, 9, 0,20, 0.00,60.00,Tuesday
12,6666289.30355716
613,9323794.657052985
2,9, 1, 9, 0,21, 0.00,60.00,Tuesday
12,6264260.007187799
613,11873553.026923012
2,9, 1, 9, 0,22, 0.00,60.00,Tuesday
12,5615539.367507048
613,13043922.352206035
2,9, 1, 9, 0,23, 0.00,60.00,Tuesday
12,4919596.395265234
613,14930608.617192207
2,9, 1, 9, 0,24, 0.00,60.00,Tuesday
12,9514941.592464155
613,17915363.50411042
2,10, 1,10, 0, 1, 0.00,60.00,Wednesday
12,3338922.585207413
613,19018814.94279218
2,10, 1,10, 0, 2, 0.00,60.00,Wednesday
12,2529626.638521964
613,20395420.53326717
2,10, 1,10, 0, 3, 0.00,60.00,Wednesday
12,2433572.038260206
613,21060571.67364708
2,10, 1,10, 0, 4, 0.00,60.00,Wednesday
12,2401446.838665989
613,22453820.73126049
2,10, 1,10, 0, 5, 0.00,60.00,Wednesday
12,2359924.6778143795
613,23382833.78715269
2,10, 1,10, 0, 6, 0.00,60.00,Wednesday
12,3920835.0349577025
613,24101845.85184173
2,10, 1,10, 0, 7, 0.00,60.00,Wednesday
12,3753443.8020997785
613,22984708.840233126
2,10, 1,10, 0, 8, 0.00,60.00,Wednesday
12,4366045.085868282
613,21048364.740419147
2,10, 1,10, 0, 9, 0.00,60.00,Wednesday
12,4060051.2405259499
613,15119497.0637676
2,10, 1,10, 0,10, 0.00,60.00,Wednesday
12,17319527.57462968
613,11476493.241550101
2,10, 1,10, 0,11, 0.00,60.00,Wednesday
12,13346262.433881566
613,8113003.23547744
2,10, 1,10, 0,12, 0.00,60.00,Wednesday
12,4621352.898999114
613,4603280.378967053
2,10, 1,10, 0,13, 0.00,60.00,Wednesday
12,3684755.084943247
613,2339806.5988875098
2,10, 1,10, 0,14, 0.00,60.00,Wednesday
12,3678279.122424193
613,1696697.8067902514
2,10, 1,10, 0,15, 0.00,60.00,Wednesday
12,4864692.153682417
613,219497.4218151233
2,10, 1,10, 0,16, 0.00,60.00,Wednesday
12,3846858.166299197
613,0.0
2,10, 1,10, 0,17, 0.00,60.00,Wednesday
12,4658343.414291647
613,3299754.0312966469
2,10, 1,10, 0,18, 0.00,60.00,Wednesday
12,6062801.125812526
613,7194654.84452806
2,10, 1,10, 0,19, 0.00,60.00,Wednesday
12,7991517.6303216549
613,8708663.043533856
2,10, 1,10, 0,20, 0.00,60.00,Wednesday
12,17178029.361370647
613,9697171.852582764
2,10, 1,10, 0,21, 0.00,60.00,Wednesday
12,6585125.857944339
613,10640601.154841813
2,10, 1,10, 0,22, 0.00,60.00,Wednesday
12,5625794.62250521
613,13566189.731505014
2,10, 1,10, 0,23, 0.00,60.00,Wednesday
12,4933920.467561207
613,15660087.864685098
2,10, 1,10, 0,24, 0.00,60.00,Wednesday
12,4810547.740832357
613,18333974.287518573
2,11, 1,11, 0, 1, 0.00,60.00,Thursday
12,2806428.955025606
613,19877471.70287291
2,11, 1,11, 0, 2, 0.00,60.00,Thursday
12,3728678.087278889
613,21451311.458253635
2,11, 1,11, 0, 3, 0.00,60.00,Thursday
12,2452735.5657500654
613,22036508.9157777
2,11, 1,11, 0, 4, 0.00,60.00,Thursday
12,2405462.8973245185
613,22658345.770479584
2,11, 1,11, 0, 5, 0.00,60.00,Thursday
12,2352875.225736591
613,23023827.710480777
2,11, 1,11, 0, 6, 0.00,60.00,Thursday
12,3885605.9714351345
613,22305521.558609584
2,11, 1,11, 0, 7, 0.00,60.00,Thursday
12,3733381.4786319059
613,21962998.789913354
2,11, 1,11, 0, 8, 0.00,60.00,Thursday
12,5559778.550687872
613,20726110.73215372
2,11, 1,11, 0, 9, 0.00,60.00,Thursday
12,15596498.10705651
613,18322807.308846445
2,11, 1,11, 0,10, 0.00,60.00,Thursday
12,5286626.469289023
613,12438277.055498282
2,11, 1,11, 0,11, 0.00,60.00,Thursday
12,4935587.945683196
613,7551214.247770262
2,11, 1,11, 0,12, 0.00,60.00,Thursday
12,8935450.868908612
613,5060766.826591967
2,11, 1,11, 0,13, 0.00,60.00,Thursday
12,3501901.2983276646
613,2194472.3622384828
2,11, 1,11, 0,14, 0.00,60.00,Thursday
12,3476276.6785901307
613,576183.6234327317
2,11, 1,11, 0,15, 0.00,60.00,Thursday
12,4763362.0396330249
613,1253589.2343734769
2,11, 1,11, 0,16, 0.00,60.00,Thursday
12,4896380.951589157
613,2646129.166493777
2,11, 1,11, 0,17, 0.00,60.00,Thursday
12,4665044.284047032
613,3641007.923744524
2,11, 1,11, 0,18, 0.00,60.00,Thursday
12,6000017.151151555
613,3997267.56219957
2,11, 1,11, 0,19, 0.00,60.00,Thursday
12,7818424.301731066
613,4121565.654123174
2,11, 1,11, 0,20, 0.00,60.00,Thursday
12,9286568.958839005
613,5542472.677347463
2,11, 1,11, 0,21, 0.00,60.00,Thursday
12,6161362.514999932
613,6633312.429197722
2,11, 1,11, 0,22, 0.00,60.00,Thursday
12,5483614.952659271
613,6325433.302402014
2,11, 1,11, 0,23, 0.00,60.00,Thursday
12,6017824.453673963
613,8031156.474581527
2,11, 1,11, 0,24, 0.00,60.00,Thursday
12,3458248.5474491578
613,9384108.10347949
2,12, 1,12, 0, 1, 0.00,60.00,Friday
12,2633187.5773974398
613,11054841.715006002
2,12, 1,12, 0, 2, 0.00,60.00,Friday
12,3529503.4794219995
613,13524919.674671771
2,12, 1,12, 0, 3, 0.00,60.00,Friday
12,2313726.0294825967
613,14957197.263655123
2,12, 1,12, 0, 4, 0.00,60.00,Friday
12,2301021.005334939
613,17339453.824038447
2,12, 1,12, 0, 5, 0.00,60.00,Friday
12,2278818.492264719
613,19252354.82982311
2,12, 1,12, 0, 6, 0.00,60.00,Friday
12,7258966.666914902
613,20057017.29144554
2,12, 1,12, 0, 7, 0.00,60.00,Friday
12,13378716.786121114
613,21330518.990617519
2,12, 1,12, 0, 8, 0.00,60.00,Friday
12,4341991.362638591
613,19823385.449723275
2,12, 1,12, 0, 9, 0.00,60.00,Friday
12,4109003.8992529197
613,17612499.60613574
2,12, 1,12, 0,10, 0.00,60.00,Friday
12,3933921.783379568
613,15777763.285282419
2,12, 1,12, 0,11, 0.00,60.00,Friday
12,20977379.651306094
613,14300949.062871458
2,12, 1,12, 0,12, 0.00,60.00,Friday
12,15929340.71025623
613,11627093.772437323
2,12, 1,12, 0,13, 0.00,60.00,Friday
12,5160875.663231377
613,10999797.570186882
2,12, 1,12, 0,14, 0.00,60.00,Friday
12,5025220.655531404
613,9970640.988390653
2,12, 1,12, 0,15, 0.00,60.00,Friday
12,3913368.2835622567
613,9626733.009060823
2,12, 1,12, 0,16, 0.00,60.00,Friday
12,4029205.6375902148
613,9286374.251056942
2,12, 1,12, 0,17, 0.00,60.00,Friday
12,5946062.720766698
613,11088340.534266169
2,12, 1,12, 0,18, 0.00,60.00,Friday
12,7435145.962737761
613,11742155.367471975
2,12, 1,12, 0,19, 0.00,60.00,Friday
12,7982391.712064267
613,10939373.83762377
2,12, 1,12, 0,20, 0.00,60.00,Friday
12,8358695.335226385
613,10818479.633518406
2,12, 1,12, 0,21, 0.00,60.00,Friday
12,7655052.5223393519
613,13187398.770716986
2,12, 1,12, 0,22, 0.00,60.00,Friday
12,8825179.74852987
613,14459230.524162326
2,12, 1,12, 0,23, 0.00,60.00,Friday
12,4925753.900557201
613,15244190.693155429
2,12, 1,12, 0,24, 0.00,60.00,Friday
12,4727793.103144188
613,16243747.76440536
2,13, 1,13, 0, 1, 0.00,60.00,Saturday
12,2725514.028601237
613,15756732.961866655
2,13, 1,13, 0, 2, 0.00,60.00,Saturday
12,5131164.897479523
613,14716488.39369638
2,13, 1,13, 0, 3, 0.00,60.00,Saturday
12,2321528.8482457676
613,15354569.899178712
2,13, 1,13, 0, 4, 0.00,60.00,Saturday
12,2263987.1606023057
613,15453438.406835854
2,13, 1,13, 0, 5, 0.00,60.00,Saturday
12,2201981.957525119
613,15339315.549955607
2,13, 1,13, 0, 6, 0.00,60.00,Saturday
12,18459015.71393376
613,16671305.01072441
2,13, 1,13, 0, 7, 0.00,60.00,Saturday
12,6389974.783668689
613,15810251.45173234
2,13, 1,13, 0, 8, 0.00,60.00,Saturday
12,4206606.003039192
613,12928641.538811354
2,13, 1,13, 0, 9, 0.00,60.00,Saturday
12,3911023.3286150956
613,7529981.541235041
2,13, 1,13, 0,10, 0.00,60.00,Saturday
12,6338212.7706112139
613,3917834.473195533
2,13, 1,13, 0,11, 0.00,60.00,Saturday
12,3709725.4470337026
613,1363306.0382498587
2,13, 1,13, 0,12, 0.00,60.00,Saturday
12,5916344.198062643
613,0.0
2,13, 1,13, 0,13, 0.00,60.00,Saturday
12,11255232.819067136
613,0.0
2,13, 1,13, 0,14, 0.00,60.00,Saturday
12,6085052.482911229
613,0.0
2,13, 1,13, 0,15, 0.00,60.00,Saturday
12,3724337.5193976296
613,0.0
2,13, 1,13, 0,16, 0.00,60.00,Saturday
12,5044220.396618335
613,0.0
2,13, 1,13, 0,17, 0.00,60.00,Saturday
12,4593549.363651183
613,0.0
2,13, 1,13, 0,18, 0.00,60.00,Saturday
12,8521385.45697057
613,0.0
2,13, 1,13, 0,19, 0.00,60.00,Saturday
12,11662503.943195297
613,1207283.903594278
2,13, 1,13, 0,20, 0.00,60.00,Saturday
12,7748162.586125191
613,1566612.6754091182
2,13, 1,13, 0,21, 0.00,60.00,Saturday
12,10210736.001942492
613,2689735.969640904
2,13, 1,13, 0,22, 0.00,60.00,Saturday
12,24691869.67711067
613,5503318.302198735
2,13, 1,13, 0,23, 0.00,60.00,Saturday
12,7470560.641846951
613,7551151.105169885
2,13, 1,13, 0,24, 0.00,60.00,Saturday
12,4580933.124084335
613,8467876.598338176
2,14, 1,14, 0, 1, 0.00,60.00,Sunday
12,2578333.70599573
613,8261309.261009654
2,14, 1,14, 0, 2, 0.00,60.00,Sunday
12,2291899.8005384795
613,8288752.031614281
2,14, 1,14, 0, 3, 0.00,60.00,Sunday
12,2193055.0017308548
613,8811807.272620185
2,14, 1,14, 0, 4, 0.00,60.00,Sunday
12,5011213.661752735
613,9687947.083176105
2,14, 1,14, 0, 5, 0.00,60.00,Sunday
12,15325635.459270254
613,10813313.587912748
2,14, 1,14, 0, 6, 0.00,60.00,Sunday
12,2843840.3237583397
613,10254462.07014826
2,14, 1,14, 0, 7, 0.00,60.00,Sunday
12,8775944.958694749
613,10381506.55793979
2,14, 1,14, 0, 8, 0.00,60.00,Sunday
12,5313573.7830331739
613,9488096.517936165
2,14, 1,14, 0, 9, 0.00,60.00,Sunday
12,3891925.309097871
613,6557380.410902455
2,14, 1,14, 0,10, 0.00,60.00,Sunday
12,8001463.985743025
613,4187829.4097920379
2,14, 1,14, 0,11, 0.00,60.00,Sunday
12,3590113.5230823049
613,1467884.3790476963
2,14, 1,14, 0,12, 0.00,60.00,Sunday
12,3553123.3920811729
613,0.0
2,14, 1,14, 0,13, 0.00,60.00,Sunday
12,4867478.833295333
613,0.0
2,14, 1,14, 0,14, 0.00,60.00,Sunday
12,3478167.792656496
613,0.0
2,14, 1,14, 0,15, 0.00,60.00,Sunday
12,3544337.5193976296
613,0.0
2,14, 1,14, 0,16, 0.00,60.00,Sunday
12,3666858.166299197
613,0.0
2,14, 1,14, 0,17, 0.00,60.00,Sunday
12,11036418.023440276
613,972280.059098711
2,14, 1,14, 0,18, 0.00,60.00,Sunday
12,9077059.821270496
613,1451494.1074525756
2,14, 1,14, 0,19, 0.00,60.00,Sunday
12,6638652.90973645
613,2074601.495265491
2,14, 1,14, 0,20, 0.00,60.00,Sunday
12,6550032.093764052
613,3403186.3158523219
2,14, 1,14, 0,21, 0.00,60.00,Sunday
12,6140276.559120643
613,5559472.04989331
2,14, 1,14, 0,22, 0.00,60.00,Sunday
12,6731439.89134776
613,7517557.507449539
2,14, 1,14, 0,23, 0.00,60.00,Sunday
12,5940662.591476404
613,8969844.594999522
2,14, 1,14, 0,24, 0.00,60.00,Sunday
12,3501452.5026740867
613,11584347.539233946
2,15, 1,15, 0, 1, 0.00,60.00,Monday
12,3804736.107448088
613,12925378.447550683
2,15, 1,15, 0, 2, 0.00,60.00,Monday
12,2415573.5079784358
613,14587058.907887003
2,15, 1,15, 0, 3, 0.00,60.00,Monday
12,2325781.697623133
613,15571153.933341509
2,15, 1,15, 0, 4, 0.00,60.00,Monday
12,2291500.3417201836
613,16854596.83743434
2,15, 1,15, 0, 5, 0.00,60.00,Monday
12,2242427.662018896
613,17399086.086490428
2,15, 1,15, 0, 6, 0.00,60.00,Monday
12,2652964.307593904
613,17324444.57317304
2,15, 1,15, 0, 7, 0.00,60.00,Monday
12,3668118.0242878545
613,18639339.527381638
2,15, 1,15, 0, 8, 0.00,60.00,Monday
12,5439704.324288482
613,16614520.24106215
2,15, 1,15, 0, 9, 0.00,60.00,Monday
12,10385688.337107825
613,9322439.814136507
2,15, 1,15, 0,10, 0.00,60.00,Monday
12,3720219.5399794357
613,4894590.645411288
2,15, 1,15, 0,11, 0.00,60.00,Monday
12,3536339.70757841
613,1700149.2002486727
2,15, 1,15, 0,12, 0.00,60.00,Monday
12,4702422.879248436
613,0.0
2,15, 1,15, 0,13, 0.00,60.00,Monday
12,4691427.586762355
613,0.0
2,15, 1,15, 0,14, 0.00,60.00,Monday
12,3464962.722907126
613,0.0
2,15, 1,15, 0,15, 0.00,60.00,Monday
12,4734819.542320611
613,0.0
2,15, 1,15, 0,16, 0.00,60.00,Monday
12,5182443.65023827
613,0.0
2,15, 1,15, 0,17, 0.00,60.00,Monday
12,4593549.363651183
613,0.0
2,15, 1,15, 0,18, 0.00,60.00,Monday
12,7585019.253102822
613,0.0
2,15, 1,15, 0,19, 0.00,60.00,Monday
12,15700255.21687902
613,966854.4536151063
2,15, 1,15, 0,20, 0.00,60.00,Monday
12,6530250.571575034
613,2395776.5777176499
2,15, 1,15, 0,21, 0.00,60.00,Monday
12,6114293.381981794
613,4236231.834745081
2,15, 1,15, 0,22, 0.00,60.00,Monday
12,6660498.193624693
613,5732172.675237569
2,15, 1,15, 0,23, 0.00,60.00,Monday
12,4796053.232141685
613,8638949.945964124
2,15, 1,15, 0,24, 0.00,60.00,Monday
12,3467460.302936564
613,9853233.385884764
2,16, 1,16, 0, 1, 0.00,60.00,Tuesday
12,3740729.346416275
613,9666884.17156561
2,16, 1,16, 0, 2, 0.00,60.00,Tuesday
12,2336709.7958597356
613,10570781.9593953
2,16, 1,16, 0, 3, 0.00,60.00,Tuesday
12,2206598.1714280557
613,9501517.6451488
2,16, 1,16, 0, 4, 0.00,60.00,Tuesday
12,2230067.935189046
613,13726040.602723776
2,16, 1,16, 0, 5, 0.00,60.00,Tuesday
12,2209153.528980634
613,15704540.776456403
2,16, 1,16, 0, 6, 0.00,60.00,Tuesday
12,2628511.5239669836
613,16079142.411141424
2,16, 1,16, 0, 7, 0.00,60.00,Tuesday
12,3618921.42172266
613,16133913.704548136
2,16, 1,16, 0, 8, 0.00,60.00,Tuesday
12,5449712.89297314
613,15202602.438826204
2,16, 1,16, 0, 9, 0.00,60.00,Tuesday
12,4042437.3994728669
613,14222480.401789802
2,16, 1,16, 0,10, 0.00,60.00,Tuesday
12,6467565.127679722
613,13856757.763621295
2,16, 1,16, 0,11, 0.00,60.00,Tuesday
12,5157279.839193311