Program Version,EnergyPlus, Version 9.2.0-921312fa1d, YMD=2019.11.06 07:58
1,5,Environment Title[],Latitude[deg],Longitude[deg],Time Zone[],Elevation[m]
2,8,Day of Simulation[],Month[],Day of Month[],DST Indicator[1=yes 0=no],Hour[],StartMinute[],EndMinute[],DayType
3,5,Cumulative Day of Simulation[],Month[],Day of Month[],DST Indicator[1=yes 0=no],DayType  ! When Daily Meters Requested
4,2,Cumulative Days of Simulation[],Month[]  ! When Monthly Meters Requested
5,1,Cumulative Days of Simulation[] ! When Run Period Meters Requested
6,1,Calendar Year of Simulation[] ! When Annual Meters Requested
178,11,dishwasher:InteriorEquipment:Electricity [J] !RunPeriod [Value,Min,Month,Day,Hour,Minute,Max,Month,Day,Hour,Minute]
102,11,interior lighting:InteriorLights:Electricity [J] !RunPeriod [Value,Min,Month,Day,Hour,Minute,Max,Month,Day,Hour,Minute]
326,11,Heating:EnergyTransfer [J] !RunPeriod [Value,Min,Month,Day,Hour,Minute,Max,Month,Day,Hour,Minute]
16,11,Electricity:Facility [J] !RunPeriod [Value,Min,Month,Day,Hour,Minute,Max,Month,Day,Hour,Minute]
617,11,Gas:Facility [J] !RunPeriod [Value,Min,Month,Day,Hour,Minute,Max,Month,Day,Hour,Minute]
351,11,Cooling:EnergyTransfer [J] !RunPeriod [Value,Min,Month,Day,Hour,Minute,Max,Month,Day,Hour,Minute]
139,11,clothes dryer:InteriorEquipment:Electricity [J] !RunPeriod [Value,Min,Month,Day,Hour,Minute,Max,Month,Day,Hour,Minute]
115,11,InteriorEquipment:Electricity [J] !RunPeriod [Value,Min,Month,Day,Hour,Minute,Max,Month,Day,Hour,Minute]
476,11,Heating:DistrictHeating [J] !RunPeriod [Value,Min,Month,Day,Hour,Minute,Max,Month,Day,Hour,Minute]
513,11,Cooling:DistrictCooling [J] !RunPeriod [Value,Min,Month,Day,Hour,Minute,Max,Month,Day,Hour,Minute]
28,11,ExteriorLights:Electricity [J] !RunPeriod [Value,Min,Month,Day,Hour,Minute,Max,Month,Day,Hour,Minute]
191,11,fridge:InteriorEquipment:Electricity [J] !RunPeriod [Value,Min,Month,Day,Hour,Minute,Max,Month,Day,Hour,Minute]
152,11,clothes washer:InteriorEquipment:Electricity [J] !RunPeriod [Value,Min,Month,Day,Hour,Minute,Max,Month,Day,Hour,Minute]
256,11,misc tv:InteriorEquipment:Electricity [J] !RunPeriod [Value,Min,Month,Day,Hour,Minute,Max,Month,Day,Hour,Minute]
243,11,misc plug loads:InteriorEquipment:Electricity [J] !RunPeriod [Value,Min,Month,Day,Hour,Minute,Max,Month,Day,Hour,Minute]
165,11,cooking range:InteriorEquipment:Electricity [J] !RunPeriod [Value,Min,Month,Day,Hour,Minute,Max,Month,Day,Hour,Minute]
217,11,mech vent house fan:InteriorEquipment:Electricity [J] !RunPeriod [Value,Min,Month,Day,Hour,Minute,Max,Month,Day,Hour,Minute]
12,1,Electricity:Facility [J] !Hourly
613,1,Gas:Facility [J] !Hourly
End of Data Dictionary
1,RUN PERIOD 1,  39.83,-104.65,  -7.00,1650.00
2,1, 1, 1, 0, 1, 0.00,60.00,Monday
12,3022141.8496140728
613,30862617.073482478
2,1, 1, 1, 0, 2, 0.00,60.00,Monday
12,2732692.501044948
613,30736494.68834692
2,1, 1, 1, 0, 3, 0.00,60.00,Monday
12,2620290.864992016
613,30569145.807614507
2,1, 1, 1, 0, 4, 0.00,60.00,Monday
12,2562168.6390600765
613,30638448.40406403
2,1, 1, 1, 0, 5, 0.00,60.00,Monday
12,2495851.493526867
613,30304736.66847405
2,1, 1, 1, 0, 6, 0.00,60.00,Monday
12,2882631.043920389
613,29020239.801618514
2,1, 1, 1, 0, 7, 0.00,60.00,Monday
12,3847896.717156011
613,27794512.86901075
2,1, 1, 1, 0, 8, 0.00,60.00,Monday
12,5624265.447645997
613,26041589.564123826
2,1, 1, 1, 0, 9, 0.00,60.00,Monday
12,10625113.98076676
613,23381872.847536688
2,1, 1, 1, 0,10, 0.00,60.00,Monday
12,3958392.259215393
613,17023732.95741132
2,1, 1, 1, 0,11, 0.00,60.00,Monday
12,3930156.510512228
613,12588983.320694289
2,1, 1, 1, 0,12, 0.00,60.00,Monday
12,5071951.115209259
613,9666674.474056952
2,1, 1, 1, 0,13, 0.00,60.00,Monday
12,5030535.318687212
613,8209573.641634866
2,1, 1, 1, 0,14, 0.00,60.00,Monday
12,3795333.4359241819
613,7657795.059293322
2,1, 1, 1, 0,15, 0.00,60.00,Monday
12,5037566.825083202
613,6299214.017836663
2,1, 1, 1, 0,16, 0.00,60.00,Monday
12,5487740.875693449
613,6470156.991272585
2,1, 1, 1, 0,17, 0.00,60.00,Monday
12,4774883.880215371
613,9234661.039793555
2,1, 1, 1, 0,18, 0.00,60.00,Monday
12,7405724.962230522
613,11253692.7048023
2,1, 1, 1, 0,19, 0.00,60.00,Monday
12,16503482.259537489
613,13966814.69000385
2,1, 1, 1, 0,20, 0.00,60.00,Monday
12,6772782.790153031
613,14746965.494067187
2,1, 1, 1, 0,21, 0.00,60.00,Monday
12,6339180.812780802
613,15688815.152804088
2,1, 1, 1, 0,22, 0.00,60.00,Monday
12,6878918.080555188
613,16922173.096900986
2,1, 1, 1, 0,23, 0.00,60.00,Monday
12,4987467.715788133
613,18386825.98028088
2,1, 1, 1, 0,24, 0.00,60.00,Monday
12,3664605.14243415
613,19892917.4820045
2,2, 1, 2, 0, 1, 0.00,60.00,Tuesday
12,2833161.412172539
613,21238579.04701701
2,2, 1, 2, 0, 2, 0.00,60.00,Tuesday
12,2567060.6719818215
613,22301510.396442538
2,2, 1, 2, 0, 3, 0.00,60.00,Tuesday
12,2462953.0940101037
613,22556545.607142927
2,2, 1, 2, 0, 4, 0.00,60.00,Tuesday
12,3573506.8631764554
613,24350954.367457298
2,2, 1, 2, 0, 5, 0.00,60.00,Tuesday
12,2364819.739085239
613,23631799.487815564
2,2, 1, 2, 0, 6, 0.00,60.00,Tuesday
12,2783920.273417777
613,23993284.51566331
2,2, 1, 2, 0, 7, 0.00,60.00,Tuesday
12,3743124.1089246568
613,22458851.78471212
2,2, 1, 2, 0, 8, 0.00,60.00,Tuesday
12,5547862.399813265
613,20286388.80443534
2,2, 1, 2, 0, 9, 0.00,60.00,Tuesday
12,4127468.467154934
613,18552586.601751184
2,2, 1, 2, 0,10, 0.00,60.00,Tuesday
12,5163221.54185435
613,13101740.232534649
2,2, 1, 2, 0,11, 0.00,60.00,Tuesday
12,5640189.398803645
613,8179850.923086857
2,2, 1, 2, 0,12, 0.00,60.00,Tuesday
12,4448969.1414211499
613,5373199.465250283
2,2, 1, 2, 0,13, 0.00,60.00,Tuesday
12,3713275.760579196
613,3792221.492985796
2,2, 1, 2, 0,14, 0.00,60.00,Tuesday
12,3707448.1120634286
613,3182137.6301173765
2,2, 1, 2, 0,15, 0.00,60.00,Tuesday
12,3571272.9913459189
613,1371718.733434147
2,2, 1, 2, 0,16, 0.00,60.00,Tuesday
12,5080911.507203418
613,2218631.5934055049
2,2, 1, 2, 0,17, 0.00,60.00,Tuesday
12,4659500.680662243
613,3358643.8437908899
2,2, 1, 2, 0,18, 0.00,60.00,Tuesday
12,7181981.807322923
613,4372014.756641511
2,2, 1, 2, 0,19, 0.00,60.00,Tuesday
12,6728169.514931315
613,6633305.277775263
2,2, 1, 2, 0,20, 0.00,60.00,Tuesday
12,6638059.186094413
613,7886016.783840219
2,2, 1, 2, 0,21, 0.00,60.00,Tuesday
12,6226075.485432638
613,9928801.121027288
2,2, 1, 2, 0,22, 0.00,60.00,Tuesday
12,5564200.978201048
613,10429279.124012618
2,2, 1, 2, 0,23, 0.00,60.00,Tuesday
12,4831209.46098072
613,10429201.3362966
2,2, 1, 2, 0,24, 0.00,60.00,Tuesday
12,9277549.799699597
613,12709220.01186766
2,3, 1, 3, 0, 1, 0.00,60.00,Wednesday
12,3317760.0080363184
613,14313254.656158895
2,3, 1, 3, 0, 2, 0.00,60.00,Wednesday
12,2433397.137617395
613,15494546.909160987
2,3, 1, 3, 0, 3, 0.00,60.00,Wednesday
12,2346983.1649710147
613,16650648.562407876
2,3, 1, 3, 0, 4, 0.00,60.00,Wednesday
12,2311289.041912973
613,17862127.131365949
2,3, 1, 3, 0, 5, 0.00,60.00,Wednesday
12,2265738.539582086
613,18585979.69484803
2,3, 1, 3, 0, 6, 0.00,60.00,Wednesday
12,3811713.5722585117
613,18544571.384944798
2,3, 1, 3, 0, 7, 0.00,60.00,Wednesday
12,3656849.843226298
613,18065239.276310229
2,3, 1, 3, 0, 8, 0.00,60.00,Wednesday
12,4295659.550509354
613,17463614.721952566
2,3, 1, 3, 0, 9, 0.00,60.00,Wednesday
12,4029712.746610791
613,13574268.292415988
2,3, 1, 3, 0,10, 0.00,60.00,Wednesday
12,16525502.172731355
613,11261782.17540128
2,3, 1, 3, 0,11, 0.00,60.00,Wednesday
12,14280880.515097199
613,8074873.984785814
2,3, 1, 3, 0,12, 0.00,60.00,Wednesday
12,4162854.28280484
613,5144431.878081462
2,3, 1, 3, 0,13, 0.00,60.00,Wednesday
12,3722863.682477879
613,4280497.031961913
2,3, 1, 3, 0,14, 0.00,60.00,Wednesday
12,3736354.903168816
613,4654247.974382045
2,3, 1, 3, 0,15, 0.00,60.00,Wednesday
12,4954354.612492278
613,4786003.432429736
2,3, 1, 3, 0,16, 0.00,60.00,Wednesday
12,3993496.022080856
613,7467695.171351535
2,3, 1, 3, 0,17, 0.00,60.00,Wednesday
12,4796799.704213153
613,10350748.643311907
2,3, 1, 3, 0,18, 0.00,60.00,Wednesday
12,6172537.132543536
613,12782983.812614242
2,3, 1, 3, 0,19, 0.00,60.00,Wednesday
12,8075654.598390615
613,13054390.426330194
2,3, 1, 3, 0,20, 0.00,60.00,Wednesday
12,17168796.2879867
613,14321792.503963083
2,3, 1, 3, 0,21, 0.00,60.00,Wednesday
12,6753994.141284735
613,17383937.04791296
2,3, 1, 3, 0,22, 0.00,60.00,Wednesday
12,5748984.376078646
613,19839578.26348666
2,3, 1, 3, 0,23, 0.00,60.00,Wednesday
12,5073145.163321477
613,22750044.86279883
2,3, 1, 3, 0,24, 0.00,60.00,Wednesday
12,4947357.897139157
613,25329071.351263539
2,4, 1, 4, 0, 1, 0.00,60.00,Thursday
12,2960432.463638922
613,27719998.264599578
2,4, 1, 4, 0, 2, 0.00,60.00,Thursday
12,3926769.3339930048
613,31567398.835564626
2,4, 1, 4, 0, 3, 0.00,60.00,Thursday
12,2666613.1823469179
613,32928161.109584545
2,4, 1, 4, 0, 4, 0.00,60.00,Thursday
12,2604667.1473681156
613,32802731.99638648
2,4, 1, 4, 0, 5, 0.00,60.00,Thursday
12,2552853.270736181
613,33207615.288427868
2,4, 1, 4, 0, 6, 0.00,60.00,Thursday
12,4092327.969411264
613,32833771.851176405
2,4, 1, 4, 0, 7, 0.00,60.00,Thursday
12,3916425.0634131229
613,31284394.78058836
2,4, 1, 4, 0, 8, 0.00,60.00,Thursday
12,5422594.558291256
613,27738835.101455887
2,4, 1, 4, 0, 9, 0.00,60.00,Thursday
12,15639233.707797908
613,25093919.509898779
2,4, 1, 4, 0,10, 0.00,60.00,Thursday
12,5611576.141194066
613,19963699.5135744
2,4, 1, 4, 0,11, 0.00,60.00,Thursday
12,5151914.094534015
613,16888411.369973035
2,4, 1, 4, 0,12, 0.00,60.00,Thursday
12,9111960.60837365
613,15670518.927129537
2,4, 1, 4, 0,13, 0.00,60.00,Thursday
12,3883941.1840067647
613,12483547.151377837
2,4, 1, 4, 0,14, 0.00,60.00,Thursday
12,3855932.259417029
613,10743857.244087792
2,4, 1, 4, 0,15, 0.00,60.00,Thursday
12,4913849.822550389
613,8958354.941169046
2,4, 1, 4, 0,16, 0.00,60.00,Thursday
12,4695066.406568185
613,9158198.477783487
2,4, 1, 4, 0,17, 0.00,60.00,Thursday
12,5090466.778765844
613,9187732.9744434
2,4, 1, 4, 0,18, 0.00,60.00,Thursday
12,6088370.215970432
613,8496690.391791283
2,4, 1, 4, 0,19, 0.00,60.00,Thursday
12,6760311.767044211
613,8270185.056331489
2,4, 1, 4, 0,20, 0.00,60.00,Thursday
12,9320928.885055615
613,7535651.267325495
2,4, 1, 4, 0,21, 0.00,60.00,Thursday
12,7324601.962503492
613,8081312.225882531
2,4, 1, 4, 0,22, 0.00,60.00,Thursday
12,5527633.357409938
613,8567032.545501583
2,4, 1, 4, 0,23, 0.00,60.00,Thursday
12,6044597.247052643
613,9471404.701087203
2,4, 1, 4, 0,24, 0.00,60.00,Thursday
12,3248091.5000855044
613,7848198.364209963
2,5, 1, 5, 0, 1, 0.00,60.00,Friday
12,2629952.792946477
613,10889955.108932386
2,5, 1, 5, 0, 2, 0.00,60.00,Friday
12,2116582.9069214665
613,8527130.722569768
2,5, 1, 5, 0, 3, 0.00,60.00,Friday
12,2318637.600670149
613,8363486.200725066
2,5, 1, 5, 0, 4, 0.00,60.00,Friday
12,2959564.9226483127
613,9102017.283828374
2,5, 1, 5, 0, 5, 0.00,60.00,Friday
12,2079197.3901867057
613,9086165.113049685
2,5, 1, 5, 0, 6, 0.00,60.00,Friday
12,6378894.498197181
613,8727864.730656177
2,5, 1, 5, 0, 7, 0.00,60.00,Friday
12,13854332.787631704
613,11309402.183509985
2,5, 1, 5, 0, 8, 0.00,60.00,Friday
12,4053440.5990991226
613,6688720.637345764
2,5, 1, 5, 0, 9, 0.00,60.00,Friday
12,3839096.1210178604
613,3866905.5726612058
2,5, 1, 5, 0,10, 0.00,60.00,Friday
12,3444109.2386857059
613,0.0
2,5, 1, 5, 0,11, 0.00,60.00,Friday
12,20327362.716633519
613,0.0
2,5, 1, 5, 0,12, 0.00,60.00,Friday
12,15300593.728411764
613,0.0
2,5, 1, 5, 0,13, 0.00,60.00,Friday
12,4762022.865267575
613,0.0
2,5, 1, 5, 0,14, 0.00,60.00,Friday
12,4648432.984051077
613,0.0
2,5, 1, 5, 0,15, 0.00,60.00,Friday
12,3544337.5193976296
613,0.0
2,5, 1, 5, 0,16, 0.00,60.00,Friday
12,3846858.166299197
613,0.0
2,5, 1, 5, 0,17, 0.00,60.00,Friday
12,4593549.363651183
613,0.0
2,5, 1, 5, 0,18, 0.00,60.00,Friday
12,8484724.983862497
613,0.0
2,5, 1, 5, 0,19, 0.00,60.00,Friday
12,6597915.984175307
613,0.0
2,5, 1, 5, 0,20, 0.00,60.00,Friday
12,9411527.742942764
613,0.0
2,5, 1, 5, 0,21, 0.00,60.00,Friday
12,7441877.287817687
613,2395537.7066675375
2,5, 1, 5, 0,22, 0.00,60.00,Friday
12,8630095.409865972
613,4737741.028489709
2,5, 1, 5, 0,23, 0.00,60.00,Friday
12,4741651.246700672
613,5868350.110199876
2,5, 1, 5, 0,24, 0.00,60.00,Friday
12,3429552.1445624565
613,7922583.30150635
2,6, 1, 6, 0, 1, 0.00,60.00,Saturday
12,2602265.721249637
613,9479960.32608986
2,6, 1, 6, 0, 2, 0.00,60.00,Saturday
12,5042015.235861655
613,10455986.331353547
2,6, 1, 6, 0, 3, 0.00,60.00,Saturday
12,3051905.86883148
613,11804182.849780705
2,6, 1, 6, 0, 4, 0.00,60.00,Saturday
12,2557654.4632081438
613,13371664.854729278
2,6, 1, 6, 0, 5, 0.00,60.00,Saturday
12,2189106.6761184597
613,14683417.196859213
2,6, 1, 6, 0, 6, 0.00,60.00,Saturday
12,18081150.522775316
613,16115287.167118224
2,6, 1, 6, 0, 7, 0.00,60.00,Saturday
12,6133079.511585467
613,15822884.770401482
2,6, 1, 6, 0, 8, 0.00,60.00,Saturday
12,4259799.866506742
613,15637420.608263184
2,6, 1, 6, 0, 9, 0.00,60.00,Saturday
12,4014453.286439106
613,12797163.387041495
2,6, 1, 6, 0,10, 0.00,60.00,Saturday
12,6465754.556452157
613,10673309.157190912
2,6, 1, 6, 0,11, 0.00,60.00,Saturday
12,3849143.4161234928
613,8463301.786699329
2,6, 1, 6, 0,12, 0.00,60.00,Saturday
12,6023359.490034877
613,5511368.497165761
2,6, 1, 6, 0,13, 0.00,60.00,Saturday
12,11319886.142219376
613,4354871.707196611
2,6, 1, 6, 0,14, 0.00,60.00,Saturday
12,6311896.138688678
613,4458204.871393656
2,6, 1, 6, 0,15, 0.00,60.00,Saturday
12,3782954.3089936359
613,2985124.9139785647
2,6, 1, 6, 0,16, 0.00,60.00,Saturday
12,5108651.706025289
613,3309533.008492633
2,6, 1, 6, 0,17, 0.00,60.00,Saturday
12,4725535.1991312899
613,6721524.813955077
2,6, 1, 6, 0,18, 0.00,60.00,Saturday
12,8687938.38689143
613,8683339.099533445
2,6, 1, 6, 0,19, 0.00,60.00,Saturday
12,11808874.923041773
613,10122775.571121755
2,6, 1, 6, 0,20, 0.00,60.00,Saturday
12,7949136.48773703
613,11872717.53422022
2,6, 1, 6, 0,21, 0.00,60.00,Saturday
12,10421324.383737091
613,13638051.820755568
2,6, 1, 6, 0,22, 0.00,60.00,Saturday
12,24801892.585038566
613,16731029.406215348
2,6, 1, 6, 0,23, 0.00,60.00,Saturday
12,7489511.496756722
613,18268236.38941965
2,6, 1, 6, 0,24, 0.00,60.00,Saturday
12,4826922.740291629
613,20998757.37458767
2,7, 1, 7, 0, 1, 0.00,60.00,Sunday
12,2863696.9976686395
613,22793637.54912137
2,7, 1, 7, 0, 2, 0.00,60.00,Sunday
12,2587746.5796149058
613,23354963.147256208
2,7, 1, 7, 0, 3, 0.00,60.00,Sunday
12,2538902.0840732159
613,26424332.021094759
2,7, 1, 7, 0, 4, 0.00,60.00,Sunday
12,5375499.039122524
613,28679910.38772757
2,7, 1, 7, 0, 5, 0.00,60.00,Sunday
12,15660151.436751897
613,31548358.727658679
2,7, 1, 7, 0, 6, 0.00,60.00,Sunday
12,3150040.157983164
613,30793870.12149868
2,7, 1, 7, 0, 7, 0.00,60.00,Sunday
12,9149790.250452145
613,31099212.93582128
2,7, 1, 7, 0, 8, 0.00,60.00,Sunday
12,5576899.405922149
613,22922021.725682808
2,7, 1, 7, 0, 9, 0.00,60.00,Sunday
12,4183220.8009828536
613,21391835.934053605
2,7, 1, 7, 0,10, 0.00,60.00,Sunday
12,8218113.627834817
613,19936021.45083853
2,7, 1, 7, 0,11, 0.00,60.00,Sunday
12,4281466.344352329
613,17800223.17412142
2,7, 1, 7, 0,12, 0.00,60.00,Sunday
12,4039341.8295779705
613,15594512.991778674
2,7, 1, 7, 0,13, 0.00,60.00,Sunday
12,5329196.6002426319
613,14397226.58760591
2,7, 1, 7, 0,14, 0.00,60.00,Sunday
12,3932747.9917392635
613,13983300.668909492
2,7, 1, 7, 0,15, 0.00,60.00,Sunday
12,3988472.8722825355
613,13451385.311163
2,7, 1, 7, 0,16, 0.00,60.00,Sunday
12,4109880.7766350538
613,13394717.66476162
2,7, 1, 7, 0,17, 0.00,60.00,Sunday
12,11317821.346267458
613,12943234.801891452
2,7, 1, 7, 0,18, 0.00,60.00,Sunday
12,9340477.880674709
613,11427456.079384862
2,7, 1, 7, 0,19, 0.00,60.00,Sunday
12,6804859.709979614
613,10538838.376301576
2,7, 1, 7, 0,20, 0.00,60.00,Sunday
12,6691422.4210044159
613,10603598.608403195
2,7, 1, 7, 0,21, 0.00,60.00,Sunday
12,6267216.153522601
613,12023935.19676725
2,7, 1, 7, 0,22, 0.00,60.00,Sunday
12,6859297.747895494
613,14088878.992657885
2,7, 1, 7, 0,23, 0.00,60.00,Sunday
12,6046576.066321473
613,14367405.29291516
2,7, 1, 7, 0,24, 0.00,60.00,Sunday
12,3548101.4453887387
613,13959837.710529549
2,8, 1, 8, 0, 1, 0.00,60.00,Monday
12,2705060.12337513
613,14714879.074066554
2,8, 1, 8, 0, 2, 0.00,60.00,Monday
12,3571305.100670482
613,15649527.49030451
2,8, 1, 8, 0, 3, 0.00,60.00,Monday
12,2358571.5308164495
613,17240798.924376217
2,8, 1, 8, 0, 4, 0.00,60.00,Monday
12,2340605.7991387729
613,19355115.45425015
2,8, 1, 8, 0, 5, 0.00,60.00,Monday
12,2305105.36077891
613,20590778.65345196
2,8, 1, 8, 0, 6, 0.00,60.00,Monday
12,2710672.338541463
613,20263052.327859206
2,8, 1, 8, 0, 7, 0.00,60.00,Monday
12,3714854.68404489
613,21019200.02121489
2,8, 1, 8, 0, 8, 0.00,60.00,Monday
12,5479841.534144745
613,18675546.385635199
2,8, 1, 8, 0, 9, 0.00,60.00,Monday
12,10418326.271437545
613,12024534.214633072
2,8, 1, 8, 0,10, 0.00,60.00,Monday
12,3776017.5067725556
613,7736096.753689911
2,8, 1, 8, 0,11, 0.00,60.00,Monday
12,3789709.3641629179
613,5436556.8818863029
2,8, 1, 8, 0,12, 0.00,60.00,Monday
12,4946963.268892079
613,3296605.328126566
2,8, 1, 8, 0,13, 0.00,60.00,Monday
12,4697233.949412864
613,353195.88919578786
2,8, 1, 8, 0,14, 0.00,60.00,Monday
12,3464962.722907126
613,0.0
2,8, 1, 8, 0,15, 0.00,60.00,Monday
12,4914303.737943415
613,0.0
2,8, 1, 8, 0,16, 0.00,60.00,Monday
12,5361419.39889643
613,0.0
2,8, 1, 8, 0,17, 0.00,60.00,Monday
12,4593549.363651183
613,0.0
2,8, 1, 8, 0,18, 0.00,60.00,Monday
12,7275426.923081202
613,4562127.531768768
2,8, 1, 8, 0,19, 0.00,60.00,Monday
12,16456496.414536108
613,6118160.144223022
2,8, 1, 8, 0,20, 0.00,60.00,Monday
12,6631905.024728316
613,7572609.302038586
2,8, 1, 8, 0,21, 0.00,60.00,Monday
12,6184763.157527003
613,7824925.07910285
2,8, 1, 8, 0,22, 0.00,60.00,Monday
12,6741381.196762288
613,9894176.339112873
2,8, 1, 8, 0,23, 0.00,60.00,Monday
12,4839782.495727301
613,10865792.623311867
2,8, 1, 8, 0,24, 0.00,60.00,Monday
12,3541471.9582632959
613,13622223.738125846
2,9, 1, 9, 0, 1, 0.00,60.00,Tuesday
12,2727143.72740353
613,15839511.061419642
2,9, 1, 9, 0, 2, 0.00,60.00,Tuesday
12,2464270.0036130717
613,17066781.794162178
2,9, 1, 9, 0, 3, 0.00,60.00,Tuesday
12,2376279.5823062628
613,18142601.053844219
2,9, 1, 9, 0, 4, 0.00,60.00,Tuesday
12,2334309.1247711565
613,19034450.340047715
2,9, 1, 9, 0, 5, 0.00,60.00,Tuesday
12,3429358.4582259117
613,20052274.106344619
2,9, 1, 9, 0, 6, 0.00,60.00,Tuesday
12,2709213.11302484
613,20188739.652688724
2,9, 1, 9, 0, 7, 0.00,60.00,Tuesday
12,3712044.9722247577
613,20876112.335703885
2,9, 1, 9, 0, 8, 0.00,60.00,Tuesday
12,5492912.453524612
613,17455384.502513339
2,9, 1, 9, 0, 9, 0.00,60.00,Tuesday
12,4015076.7509453927
613,12828914.007359066
2,9, 1, 9, 0,10, 0.00,60.00,Tuesday
12,5092458.636083008
613,9414857.001417518
2,9, 1, 9, 0,11, 0.00,60.00,Tuesday
12,5046785.994117035
613,6796555.306354029
2,9, 1, 9, 0,12, 0.00,60.00,Tuesday
12,4968297.495430974
613,5108486.024697438
2,9, 1, 9, 0,13, 0.00,60.00,Tuesday
12,3716986.754168819
613,3981207.9505579255
2,9, 1, 9, 0,14, 0.00,60.00,Tuesday
12,3703347.1439300475
613,2973291.287102678
2,9, 1, 9, 0,15, 0.00,60.00,Tuesday
12,3747588.6006618954
613,1184087.0582859193
2,9, 1, 9, 0,16, 0.00,60.00,Tuesday
12,5058330.419478845
613,1035602.5121307978
2,9, 1, 9, 0,17, 0.00,60.00,Tuesday
12,4665742.522495733
613,3676516.550479214
2,9, 1, 9, 0,18, 0.00,60.00,Tuesday
12,7217974.995029688
613,6181355.222616499
2,9, 1, 9, 0,19, 0.00,60.00,Tuesday
12,6734760.381657262
613,6968952.463572038
2,9, 1, 9, 0,20, 0.00,60.00,Tuesday
12,6627479.315484619
613,7347225.158409451
2,9, 1, 9, 0,21, 0.00,60.00,Tuesday
12,6225923.1246976279
613,9921041.981894479
2,9, 1, 9, 0,22, 0.00,60.00,Tuesday
12,5580787.580759517
613,11273970.224920646
2,9, 1, 9, 0,23, 0.00,60.00,Tuesday
12,4889073.97191002
613,13376015.626207997
2,9, 1, 9, 0,24, 0.00,60.00,Tuesday
12,9481396.931161505
613,16581580.001677046
2,10, 1,10, 0, 1, 0.00,60.00,Wednesday
12,3321990.242112428
613,17901242.03549763
2,10, 1,10, 0, 2, 0.00,60.00,Wednesday
12,2511534.57960781
613,19473782.66068762
2,10, 1,10, 0, 3, 0.00,60.00,Wednesday
12,2418889.619023297
613,20312564.35388526
2,10, 1,10, 0, 4, 0.00,60.00,Wednesday
12,2389846.8333534568
613,21862769.64407185
2,10, 1,10, 0, 5, 0.00,60.00,Wednesday
12,2350926.071930668
613,22924249.104120349
2,10, 1,10, 0, 6, 0.00,60.00,Wednesday
12,3914035.148517969
613,23755225.403327466
2,10, 1,10, 0, 7, 0.00,60.00,Wednesday
12,3748324.406790527
613,22723682.711593465
2,10, 1,10, 0, 8, 0.00,60.00,Wednesday
12,4361992.38751037
613,20841687.893672334
2,10, 1,10, 0, 9, 0.00,60.00,Wednesday
12,4055846.429040822
613,14905155.006846436
2,10, 1,10, 0,10, 0.00,60.00,Wednesday
12,17312109.236654488
613,11098431.460652709
2,10, 1,10, 0,11, 0.00,60.00,Wednesday
12,13335996.207669855
613,7594475.537180718
2,10, 1,10, 0,12, 0.00,60.00,Wednesday
12,4606085.229144731
613,3823888.244962052
2,10, 1,10, 0,13, 0.00,60.00,Wednesday
12,3665598.2880494326
613,1364193.4132319946
2,10, 1,10, 0,14, 0.00,60.00,Wednesday
12,3655844.868054295
613,554185.2909419428
2,10, 1,10, 0,15, 0.00,60.00,Wednesday
12,4860382.095792115
613,0.0
2,10, 1,10, 0,16, 0.00,60.00,Wednesday
12,3846858.166299197
613,0.0
2,10, 1,10, 0,17, 0.00,60.00,Wednesday
12,4601647.264017617
613,412394.54261078426
2,10, 1,10, 0,18, 0.00,60.00,Wednesday
12,6014583.963614261
613,4739043.790270069
2,10, 1,10, 0,19, 0.00,60.00,Wednesday
12,7939858.582893708
613,6077920.004565807
2,10, 1,10, 0,20, 0.00,60.00,Wednesday
12,17120574.3238262
613,7046197.400156415
2,10, 1,10, 0,21, 0.00,60.00,Wednesday
12,6532196.219905746
613,7777946.485148957
2,10, 1,10, 0,22, 0.00,60.00,Wednesday
12,5570144.196549334
613,10731944.099064237
2,10, 1,10, 0,23, 0.00,60.00,Wednesday
12,4883482.432832932
613,13091260.307441106
2,10, 1,10, 0,24, 0.00,60.00,Wednesday
12,4766484.4181659449
613,16089749.059780708
2,11, 1,11, 0, 1, 0.00,60.00,Thursday
12,2768945.552179383
613,17968315.273458367
2,11, 1,11, 0, 2, 0.00,60.00,Thursday
12,3697394.029204117
613,19857841.50247656
2,11, 1,11, 0, 3, 0.00,60.00,Thursday
12,2427010.135382419
613,20726110.64096538
2,11, 1,11, 0, 4, 0.00,60.00,Thursday
12,2384547.4149891186
613,21592890.896054258
2,11, 1,11, 0, 5, 0.00,60.00,Thursday
12,2336246.6281640336
613,22176682.176399828
2,11, 1,11, 0, 6, 0.00,60.00,Thursday
12,3872556.7323000666
613,21640669.61187042
2,11, 1,11, 0, 7, 0.00,60.00,Thursday
12,3723336.9897972994
613,21451170.8337417
2,11, 1,11, 0, 8, 0.00,60.00,Thursday
12,5551922.069951215
613,20325727.893973534
2,11, 1,11, 0, 9, 0.00,60.00,Thursday
12,15589751.640037116
613,17980825.64435687
2,11, 1,11, 0,10, 0.00,60.00,Thursday
12,5280206.284662918
613,12111178.491666129
2,11, 1,11, 0,11, 0.00,60.00,Thursday
12,4927688.331668835
613,7148275.095952042
2,11, 1,11, 0,12, 0.00,60.00,Thursday
12,8923410.665809764
613,4447536.960357906
2,11, 1,11, 0,13, 0.00,60.00,Thursday
12,3485112.2706832436
613,1339442.4407130788
2,11, 1,11, 0,14, 0.00,60.00,Thursday
12,3464962.722907126
613,0.0
2,11, 1,11, 0,15, 0.00,60.00,Thursday
12,4739712.704379725
613,50125.430758817376
2,11, 1,11, 0,16, 0.00,60.00,Thursday
12,4874432.188122426
613,1528328.6788905059
2,11, 1,11, 0,17, 0.00,60.00,Thursday
12,4641437.699586433
613,2438766.5321580127
2,11, 1,11, 0,18, 0.00,60.00,Thursday
12,5974671.385266963
613,2706451.544485304
2,11, 1,11, 0,19, 0.00,60.00,Thursday
12,7791408.5241413949
613,2745709.13417213
2,11, 1,11, 0,20, 0.00,60.00,Thursday
12,9259755.797719215
613,4176914.0296613399
2,11, 1,11, 0,21, 0.00,60.00,Thursday
12,6136156.121373681
613,5349557.9425542489
2,11, 1,11, 0,22, 0.00,60.00,Thursday
12,5460926.390936629
613,5169906.41614814
2,11, 1,11, 0,23, 0.00,60.00,Thursday
12,5997835.677390438
613,7013109.760854076
2,11, 1,11, 0,24, 0.00,60.00,Thursday
12,3440996.7765923088
613,8505413.859766
2,12, 1,12, 0, 1, 0.00,60.00,Friday
12,2618621.4493741246
613,10312893.89081024
2,12, 1,12, 0, 2, 0.00,60.00,Friday
12,3517451.3158375846
613,12910972.358899245
2,12, 1,12, 0, 3, 0.00,60.00,Friday
12,2303859.736067885
613,14454540.19683328
2,12, 1,12, 0, 4, 0.00,60.00,Friday
12,2293226.2822211205
613,16942261.093956263
2,12, 1,12, 0, 5, 0.00,60.00,Friday
12,2272768.662279145
613,18943996.4773425
2,12, 1,12, 0, 6, 0.00,60.00,Friday
12,7253465.561154208
613,19823041.494030227
2,12, 1,12, 0, 7, 0.00,60.00,Friday
12,13377138.758030532
613,21164041.32133755
2,12, 1,12, 0, 8, 0.00,60.00,Friday
12,4339633.559561888
613,19703039.82344571
2,12, 1,12, 0, 9, 0.00,60.00,Friday
12,4107273.078434189
613,17524114.06967849
2,12, 1,12, 0,10, 0.00,60.00,Friday
12,3932834.9838182849
613,15722200.4093627
2,12, 1,12, 0,11, 0.00,60.00,Friday
12,20976541.817878538
613,14278855.157643583
2,12, 1,12, 0,12, 0.00,60.00,Friday
12,15929251.151095635
613,11627672.961591496
2,12, 1,12, 0,13, 0.00,60.00,Friday
12,5161400.253600399
613,11026376.333373217
2,12, 1,12, 0,14, 0.00,60.00,Friday
12,5026275.663196451
613,10024231.684385736
2,12, 1,12, 0,15, 0.00,60.00,Friday
12,3914794.68044372
613,9699241.811138837
2,12, 1,12, 0,16, 0.00,60.00,Friday
12,4030965.916264867
613,9375891.02144382
2,12, 1,12, 0,17, 0.00,60.00,Friday
12,5948346.40696095
613,11204487.76574267
2,12, 1,12, 0,18, 0.00,60.00,Friday
12,7437493.3080181949
613,11861535.778196654
2,12, 1,12, 0,19, 0.00,60.00,Friday
12,7984508.014175966
613,11046998.849169815
2,12, 1,12, 0,20, 0.00,60.00,Friday
12,8360864.777761967
613,10928812.600837797
2,12, 1,12, 0,21, 0.00,60.00,Friday
12,7657581.382391331
613,13316002.984344233
2,12, 1,12, 0,22, 0.00,60.00,Friday
12,8827833.469932892
613,14594176.06439652
2,12, 1,12, 0,23, 0.00,60.00,Friday
12,4928425.932446909
613,15380057.789250123
2,12, 1,12, 0,24, 0.00,60.00,Friday
12,4730597.150285441
613,16386324.245100659
2,13, 1,13, 0, 1, 0.00,60.00,Saturday
12,2728224.114477191
613,15894530.96941109
2,13, 1,13, 0, 2, 0.00,60.00,Saturday
12,5133708.863751769
613,14845841.23677214
2,13, 1,13, 0, 3, 0.00,60.00,Saturday
12,2324157.903386084
613,15488246.842783554
2,13, 1,13, 0, 4, 0.00,60.00,Saturday
12,2266571.3884898929
613,15584831.116897939
2,13, 1,13, 0, 5, 0.00,60.00,Saturday
12,2204530.3774708465
613,15468886.266218016
2,13, 1,13, 0, 6, 0.00,60.00,Saturday
12,18461796.56259496
613,16812778.968937447
2,13, 1,13, 0, 7, 0.00,60.00,Saturday
12,6392638.077758572
613,15945679.095883839
2,13, 1,13, 0, 8, 0.00,60.00,Saturday
12,4208239.725146422
613,13011663.31920427
2,13, 1,13, 0, 9, 0.00,60.00,Saturday
12,3910978.9411197958
613,7527617.779048333
2,13, 1,13, 0,10, 0.00,60.00,Saturday
12,6333482.913577027
613,3676907.5405431764
2,13, 1,13, 0,11, 0.00,60.00,Saturday
12,3701807.9644748859
613,960080.7734061346
2,13, 1,13, 0,12, 0.00,60.00,Saturday
12,5916344.198065679
613,0.0
2,13, 1,13, 0,13, 0.00,60.00,Saturday
12,11254332.830225066
613,0.0
2,13, 1,13, 0,14, 0.00,60.00,Saturday
12,6085480.9203292
613,0.0
2,13, 1,13, 0,15, 0.00,60.00,Saturday
12,3724337.5193976296
613,0.0
2,13, 1,13, 0,16, 0.00,60.00,Saturday
12,5044117.25066116
613,0.0
2,13, 1,13, 0,17, 0.00,60.00,Saturday
12,4593549.363651183
613,0.0
2,13, 1,13, 0,18, 0.00,60.00,Saturday
12,8520995.259187879
613,0.0
2,13, 1,13, 0,19, 0.00,60.00,Saturday
12,11637522.369684823
613,0.0
2,13, 1,13, 0,20, 0.00,60.00,Saturday
12,7717196.849824717
613,0.0
2,13, 1,13, 0,21, 0.00,60.00,Saturday
12,10157516.119582622
613,0.0
2,13, 1,13, 0,22, 0.00,60.00,Saturday
12,24609203.038514705
613,1798727.2489260373
2,13, 1,13, 0,23, 0.00,60.00,Saturday
12,7412127.853526166
613,4680591.6186796459
2,13, 1,13, 0,24, 0.00,60.00,Saturday
12,4521675.629404769
613,5450006.6084877899
2,14, 1,14, 0, 1, 0.00,60.00,Sunday
12,2519556.544651114
613,5267903.92756397
2,14, 1,14, 0, 2, 0.00,60.00,Sunday
12,2238758.981873015
613,5582383.3135795979
2,14, 1,14, 0, 3, 0.00,60.00,Sunday
12,2147634.770543801
613,6498610.846462329
2,14, 1,14, 0, 4, 0.00,60.00,Sunday
12,4972811.392893082
613,7732133.139451388
2,14, 1,14, 0, 5, 0.00,60.00,Sunday
12,15293643.539739557
613,9175833.219284742
2,14, 1,14, 0, 6, 0.00,60.00,Sunday
12,2817349.730995476
613,8907222.21424328
2,14, 1,14, 0, 7, 0.00,60.00,Sunday
12,8754384.049843073
613,9283352.820494114
2,14, 1,14, 0, 8, 0.00,60.00,Sunday
12,5296158.424784843
613,8601069.977166739
2,14, 1,14, 0, 9, 0.00,60.00,Sunday
12,3877640.3928433938
613,5829815.293759292
2,14, 1,14, 0,10, 0.00,60.00,Sunday
12,7991180.001897632
613,3663987.347667571
2,14, 1,14, 0,11, 0.00,60.00,Sunday
12,3577999.7107225239
613,851000.4931031318
2,14, 1,14, 0,12, 0.00,60.00,Sunday
12,3553123.3920811729
613,0.0
2,14, 1,14, 0,13, 0.00,60.00,Sunday
12,4867445.296697052
613,0.0
2,14, 1,14, 0,14, 0.00,60.00,Sunday
12,3478167.792656496
613,0.0
2,14, 1,14, 0,15, 0.00,60.00,Sunday
12,3544337.5193976296
613,0.0
2,14, 1,14, 0,16, 0.00,60.00,Sunday
12,3666858.166299197
613,0.0
2,14, 1,14, 0,17, 0.00,60.00,Sunday
12,11008224.174531617
613,0.0
2,14, 1,14, 0,18, 0.00,60.00,Sunday
12,9055219.098984303
613,0.0
2,14, 1,14, 0,19, 0.00,60.00,Sunday
12,6610424.395632844
613,637004.7034908829
2,14, 1,14, 0,20, 0.00,60.00,Sunday
12,6524436.121144469
613,2099636.391424624
2,14, 1,14, 0,21, 0.00,60.00,Sunday
12,6117790.162083431
613,4414251.129876516
2,14, 1,14, 0,22, 0.00,60.00,Sunday
12,6708255.298156862
613,6336895.256883043
2,14, 1,14, 0,23, 0.00,60.00,Sunday
12,5915490.589142204
613,7687876.3267030599
2,14, 1,14, 0,24, 0.00,60.00,Sunday
12,3479134.041715695
613,10447596.313896576
2,15, 1,15, 0, 1, 0.00,60.00,Monday
12,3785585.268772145
613,11949996.979791984
2,15, 1,15, 0, 2, 0.00,60.00,Monday
12,2399520.6222672958
613,13769347.85497655
2,15, 1,15, 0, 3, 0.00,60.00,Monday
12,2312564.6405455737
613,14897847.095918762
2,15, 1,15, 0, 4, 0.00,60.00,Monday
12,2280840.392096617
613,16311495.925012652
2,15, 1,15, 0, 5, 0.00,60.00,Monday
12,2234006.6076134878
613,16969995.923969706
2,15, 1,15, 0, 6, 0.00,60.00,Monday
12,2646426.614213978
613,16991267.68000736
2,15, 1,15, 0, 7, 0.00,60.00,Monday
12,3663422.724668487
613,18399970.54161722
2,15, 1,15, 0, 8, 0.00,60.00,Monday
12,5435828.414942808
613,16416971.892951504
2,15, 1,15, 0, 9, 0.00,60.00,Monday
12,10381323.685501468
613,9100335.671134443
2,15, 1,15, 0,10, 0.00,60.00,Monday
12,3710983.0060294277
613,4424142.793493917
2,15, 1,15, 0,11, 0.00,60.00,Monday
12,3526294.31388022