Program Version,EnergyPlus, Version 9.1.0-fafb9d5652, YMD=2019.09.26 13:40
1,5,Environment Title[],Latitude[deg],Longitude[deg],Time Zone[],Elevation[m]
2,8,Day of Simulation[],Month[],Day of Month[],DST Indicator[1=yes 0=no],Hour[],StartMinute[],EndMinute[],DayType
3,5,Cumulative Day of Simulation[],Month[],Day of Month[],DST Indicator[1=yes 0=no],DayType  ! When Daily Meters Requested
4,2,Cumulative Days of Simulation[],Month[]  ! When Monthly Meters Requested
5,1,Cumulative Days of Simulation[] ! When Run Period Meters Requested
6,1,Calendar Year of Simulation[] ! When Annual Meters Requested
12,1,Electricity:Facility [J] !Hourly
611,1,Gas:Facility [J] !Hourly
End of Data Dictionary
1,RUN PERIOD 1,  39.83,-104.65,  -7.00,1650.00
2,1, 1, 1, 0, 1, 0.00,60.00,Monday
12,3034660.8950335986
611,31500595.37962772
2,1, 1, 1, 0, 2, 0.00,60.00,Monday
12,2742886.379271933
611,31256057.926625655
2,1, 1, 1, 0, 3, 0.00,60.00,Monday
12,2628313.980322722
611,30978156.73016797
2,1, 1, 1, 0, 4, 0.00,60.00,Monday
12,2568206.0164620087
611,30946332.987385535
2,1, 1, 1, 0, 5, 0.00,60.00,Monday
12,2500209.2957619179
611,30527081.276322854
2,1, 1, 1, 0, 6, 0.00,60.00,Monday
12,2885609.238243889
611,29172307.767168255
2,1, 1, 1, 0, 7, 0.00,60.00,Monday
12,3849672.4806241297
611,27885328.05987453
2,1, 1, 1, 0, 8, 0.00,60.00,Monday
12,5625048.647187186
611,26081832.601576397
2,1, 1, 1, 0, 9, 0.00,60.00,Monday
12,10625853.526428344
611,23419856.251655055
2,1, 1, 1, 0,10, 0.00,60.00,Monday
12,3960085.9596202226
611,17110221.206530814
2,1, 1, 1, 0,11, 0.00,60.00,Monday
12,3933111.895748383
611,12739664.321103907
2,1, 1, 1, 0,12, 0.00,60.00,Monday
12,5079348.505854689
611,10043532.538719805
2,1, 1, 1, 0,13, 0.00,60.00,Monday
12,5043597.502548153
611,8874901.544450714
2,1, 1, 1, 0,14, 0.00,60.00,Monday
12,3813832.814982677
611,8600014.377612364
2,1, 1, 1, 0,15, 0.00,60.00,Monday
12,5060334.935211092
611,7458807.539856127
2,1, 1, 1, 0,16, 0.00,60.00,Monday
12,5512650.45891637
611,7738811.242278329
2,1, 1, 1, 0,17, 0.00,60.00,Monday
12,4800619.418770785
611,10545416.4755524
2,1, 1, 1, 0,18, 0.00,60.00,Monday
12,7434576.281830246
611,12723152.609585258
2,1, 1, 1, 0,19, 0.00,60.00,Monday
12,16533396.511435405
611,15490443.555669619
2,1, 1, 1, 0,20, 0.00,60.00,Monday
12,6801460.960577369
611,16207655.378224355
2,1, 1, 1, 0,21, 0.00,60.00,Monday
12,6365131.723332442
611,17010627.321584166
2,1, 1, 1, 0,22, 0.00,60.00,Monday
12,6901556.896081262
611,18075327.762392038
2,1, 1, 1, 0,23, 0.00,60.00,Monday
12,5006674.865167905
611,19365236.939704297
2,1, 1, 1, 0,24, 0.00,60.00,Monday
12,3680713.1647330548
611,20713520.456115627
2,2, 1, 2, 0, 1, 0.00,60.00,Tuesday
12,2845907.776929194
611,21888001.997545575
2,2, 1, 2, 0, 2, 0.00,60.00,Tuesday
12,2577064.2606450046
611,22811267.100789437
2,2, 1, 2, 0, 3, 0.00,60.00,Tuesday
12,2470582.712839292
611,22945407.10894055
2,2, 1, 2, 0, 4, 0.00,60.00,Tuesday
12,3578876.25543146
611,24624734.361642377
2,2, 1, 2, 0, 5, 0.00,60.00,Tuesday
12,2368596.9426017894
611,23824484.53147053
2,2, 1, 2, 0, 6, 0.00,60.00,Tuesday
12,2786337.4090270099
611,24116710.603313537
2,2, 1, 2, 0, 7, 0.00,60.00,Tuesday
12,3744346.514474517
611,22521413.040408959
2,2, 1, 2, 0, 8, 0.00,60.00,Tuesday
12,5548559.119177664
611,20322148.74435124
2,2, 1, 2, 0, 9, 0.00,60.00,Tuesday
12,4128016.749643537
611,18580763.344901019
2,2, 1, 2, 0,10, 0.00,60.00,Tuesday
12,5165293.953916525
611,13207461.26253865
2,2, 1, 2, 0,11, 0.00,60.00,Tuesday
12,5643785.577739943
611,8363104.765213206
2,2, 1, 2, 0,12, 0.00,60.00,Tuesday
12,4456161.538608104
611,5739559.217622932
2,2, 1, 2, 0,13, 0.00,60.00,Tuesday
12,3726569.9278333007
611,4469302.980586494
2,2, 1, 2, 0,14, 0.00,60.00,Tuesday
12,3724150.9844040058
611,4032805.2116333937
2,2, 1, 2, 0,15, 0.00,60.00,Tuesday
12,3591619.523862478
611,2407921.457270873
2,2, 1, 2, 0,16, 0.00,60.00,Tuesday
12,5100949.924486384
611,3239154.608848334
2,2, 1, 2, 0,17, 0.00,60.00,Tuesday
12,4681078.709006262
611,4457589.969098249
2,2, 1, 2, 0,18, 0.00,60.00,Tuesday
12,7207697.936377665
611,5681715.032453718
2,2, 1, 2, 0,19, 0.00,60.00,Tuesday
12,6756836.7963503389
611,8093329.332678108
2,2, 1, 2, 0,20, 0.00,60.00,Tuesday
12,6667220.386121511
611,9371211.717953142
2,2, 1, 2, 0,21, 0.00,60.00,Tuesday
12,6253982.51422619
611,11350153.139179131
2,2, 1, 2, 0,22, 0.00,60.00,Tuesday
12,5589437.512081976
611,11714638.23102754
2,2, 1, 2, 0,23, 0.00,60.00,Tuesday
12,4853373.896363144
611,11558108.27873917
2,2, 1, 2, 0,24, 0.00,60.00,Tuesday
12,9296478.878164623
611,13673391.828064193
2,3, 1, 3, 0, 1, 0.00,60.00,Wednesday
12,3333565.5344378415
611,15118375.953683947
2,3, 1, 3, 0, 2, 0.00,60.00,Wednesday
12,2446421.536139281
611,16158050.446078202
2,3, 1, 3, 0, 3, 0.00,60.00,Wednesday
12,2357511.5129365
611,17187052.074569834
2,3, 1, 3, 0, 4, 0.00,60.00,Wednesday
12,2319574.3838711467
611,18284318.128922479
2,3, 1, 3, 0, 5, 0.00,60.00,Wednesday
12,2272132.2896909026
611,18911847.89008197
2,3, 1, 3, 0, 6, 0.00,60.00,Wednesday
12,3816550.151483602
611,18791137.273093318
2,3, 1, 3, 0, 7, 0.00,60.00,Wednesday
12,3660400.2523625746
611,18246298.05565172
2,3, 1, 3, 0, 8, 0.00,60.00,Wednesday
12,4298218.18952937
611,17594157.56534104
2,3, 1, 3, 0, 9, 0.00,60.00,Wednesday
12,4032221.006135582
611,13702192.122745799
2,3, 1, 3, 0,10, 0.00,60.00,Wednesday
12,16527960.959004745
611,11387154.772989316
2,3, 1, 3, 0,11, 0.00,60.00,Wednesday
12,14284163.126593642
611,8242157.657797415
2,3, 1, 3, 0,12, 0.00,60.00,Wednesday
12,4169480.4393820369
611,5481951.428087354
2,3, 1, 3, 0,13, 0.00,60.00,Wednesday
12,3734605.480180829
611,4878527.994154237
2,3, 1, 3, 0,14, 0.00,60.00,Wednesday
12,3748959.5540594679
611,5296226.419632261
2,3, 1, 3, 0,15, 0.00,60.00,Wednesday
12,4969504.5075414
611,5557604.839705645
2,3, 1, 3, 0,16, 0.00,60.00,Wednesday
12,4010971.487365984
611,8357767.2244096719
2,3, 1, 3, 0,17, 0.00,60.00,Wednesday
12,4817709.507168815
611,11415760.08780056
2,3, 1, 3, 0,18, 0.00,60.00,Wednesday
12,6198712.891312475
611,14116206.926487675
2,3, 1, 3, 0,19, 0.00,60.00,Wednesday
12,8102064.139348114
611,14399523.042924516
2,3, 1, 3, 0,20, 0.00,60.00,Wednesday
12,17193554.2206321
611,15582831.368548258
2,3, 1, 3, 0,21, 0.00,60.00,Wednesday
12,6776217.329745599
611,18515931.488151757
2,3, 1, 3, 0,22, 0.00,60.00,Wednesday
12,5768129.368794365
611,20814843.708509376
2,3, 1, 3, 0,23, 0.00,60.00,Wednesday
12,5089047.326665485
611,23560203.286270754
2,3, 1, 3, 0,24, 0.00,60.00,Wednesday
12,4960508.238279809
611,25999123.633839858
2,4, 1, 4, 0, 1, 0.00,60.00,Thursday
12,2970980.15664789
611,28257538.78527798
2,4, 1, 4, 0, 2, 0.00,60.00,Thursday
12,3934850.822602674
611,31979396.214799856
2,4, 1, 4, 0, 3, 0.00,60.00,Thursday
12,2672377.121936385
611,33222151.784252116
2,4, 1, 4, 0, 4, 0.00,60.00,Thursday
12,2608926.5134657535
611,33020097.82869949
2,4, 1, 4, 0, 5, 0.00,60.00,Thursday
12,2555720.317519701
611,33354080.29885733
2,4, 1, 4, 0, 6, 0.00,60.00,Thursday
12,4094008.5592686247
611,32919809.27254802
2,4, 1, 4, 0, 7, 0.00,60.00,Thursday
12,3917080.867102253
611,31318221.86456408
2,4, 1, 4, 0, 8, 0.00,60.00,Thursday
12,5422897.609483181
611,27754648.996635066
2,4, 1, 4, 0, 9, 0.00,60.00,Thursday
12,15639495.407971606
611,25107591.25211163
2,4, 1, 4, 0,10, 0.00,60.00,Thursday
12,5613714.382816706
611,20072867.151513786
2,4, 1, 4, 0,11, 0.00,60.00,Thursday
12,5157090.372237658
611,17152254.300658019
2,4, 1, 4, 0,12, 0.00,60.00,Thursday
12,9120058.747520762
611,16083146.223382682
2,4, 1, 4, 0,13, 0.00,60.00,Thursday
12,3893212.1529826286
611,12955859.211990523
2,4, 1, 4, 0,14, 0.00,60.00,Thursday
12,3864971.712305548
611,11204355.068296509
2,4, 1, 4, 0,15, 0.00,60.00,Thursday
12,4921986.865524463
611,9372871.4209934
2,4, 1, 4, 0,16, 0.00,60.00,Thursday
12,4701858.543986123
611,9504225.954729805
2,4, 1, 4, 0,17, 0.00,60.00,Thursday
12,5096514.590903623
611,9495854.747346107
2,4, 1, 4, 0,18, 0.00,60.00,Thursday
12,6094017.057458309
611,8784382.532034703
2,4, 1, 4, 0,19, 0.00,60.00,Thursday
12,6765919.755124652
611,8555895.409893277
2,4, 1, 4, 0,20, 0.00,60.00,Thursday
12,9326360.512920166
611,7812370.083560606
2,4, 1, 4, 0,21, 0.00,60.00,Thursday
12,7329312.206257419
611,8321300.737926361
2,4, 1, 4, 0,22, 0.00,60.00,Thursday
12,5531512.093177537
611,8764681.67398061
2,4, 1, 4, 0,23, 0.00,60.00,Thursday
12,6047651.35543464
611,9627070.59524968
2,4, 1, 4, 0,24, 0.00,60.00,Thursday
12,3250637.3164715429
611,7977956.306719496
2,5, 1, 5, 0, 1, 0.00,60.00,Friday
12,2631457.0994914195
611,10966714.002816098
2,5, 1, 5, 0, 2, 0.00,60.00,Friday
12,2117984.3311450534
611,8598617.739949096
2,5, 1, 5, 0, 3, 0.00,60.00,Friday
12,2319609.4531159175
611,8413094.255129042
2,5, 1, 5, 0, 4, 0.00,60.00,Friday
12,2960017.710318614
611,9125201.15680754
2,5, 1, 5, 0, 5, 0.00,60.00,Friday
12,2079378.8966514976
611,9095533.283403002
2,5, 1, 5, 0, 6, 0.00,60.00,Friday
12,6378889.795631068
611,8727744.95541255
2,5, 1, 5, 0, 7, 0.00,60.00,Friday
12,13853758.536200939
611,11280312.51224495
2,5, 1, 5, 0, 8, 0.00,60.00,Friday
12,4053754.0783437297
611,6704776.876449775
2,5, 1, 5, 0, 9, 0.00,60.00,Friday
12,3840608.733352874
611,3943991.1257271508
2,5, 1, 5, 0,10, 0.00,60.00,Friday
12,3444109.2386857059
611,0.0
2,5, 1, 5, 0,11, 0.00,60.00,Friday
12,20327363.65936098
611,0.0
2,5, 1, 5, 0,12, 0.00,60.00,Friday
12,15300856.922718307
611,0.0
2,5, 1, 5, 0,13, 0.00,60.00,Friday
12,4762061.612589996
611,0.0
2,5, 1, 5, 0,14, 0.00,60.00,Friday
12,4648472.389195953
611,0.0
2,5, 1, 5, 0,15, 0.00,60.00,Friday
12,3544337.5193976296
611,0.0
2,5, 1, 5, 0,16, 0.00,60.00,Friday
12,3846858.166299197
611,0.0
2,5, 1, 5, 0,17, 0.00,60.00,Friday
12,4593549.363651183
611,0.0
2,5, 1, 5, 0,18, 0.00,60.00,Friday
12,8485028.81531867
611,0.0
2,5, 1, 5, 0,19, 0.00,60.00,Friday
12,6626902.4821327109
611,1476189.7511062734
2,5, 1, 5, 0,20, 0.00,60.00,Friday
12,9469072.213388386
611,2917274.4905166898
2,5, 1, 5, 0,21, 0.00,60.00,Friday
12,7493401.7076984089
611,5017831.175382031
2,5, 1, 5, 0,22, 0.00,60.00,Friday
12,8674560.338042804
611,7001481.443060938
2,5, 1, 5, 0,23, 0.00,60.00,Friday
12,4781149.267165473
611,7879938.61658369
2,5, 1, 5, 0,24, 0.00,60.00,Friday
12,3470715.179755678
611,10018993.865420783
2,6, 1, 6, 0, 1, 0.00,60.00,Saturday
12,2643560.9383982585
611,11583123.855761217
2,6, 1, 6, 0, 2, 0.00,60.00,Saturday
12,5077423.717085665
611,12257670.142553745
2,6, 1, 6, 0, 3, 0.00,60.00,Saturday
12,3416475.720161409
611,13325740.61768585
2,6, 1, 6, 0, 4, 0.00,60.00,Saturday
12,2247854.5873335686
611,14631857.981588304
2,6, 1, 6, 0, 5, 0.00,60.00,Saturday
12,2209358.7829343548
611,15714993.704688762
2,6, 1, 6, 0, 6, 0.00,60.00,Saturday
12,18105274.46696549
611,16944928.27806628
2,6, 1, 6, 0, 7, 0.00,60.00,Saturday
12,6147229.596276368
611,16482960.156726517
2,6, 1, 6, 0, 8, 0.00,60.00,Saturday
12,4270088.262528444
611,16161590.236953967
2,6, 1, 6, 0, 9, 0.00,60.00,Saturday
12,4023423.01575793
611,13254138.5757148
2,6, 1, 6, 0,10, 0.00,60.00,Saturday
12,6472824.90919227
611,11033475.760874378
2,6, 1, 6, 0,11, 0.00,60.00,Saturday
12,3859831.514241555
611,9007728.566170518
2,6, 1, 6, 0,12, 0.00,60.00,Saturday
12,6038787.417880684
611,6297139.801298514
2,6, 1, 6, 0,13, 0.00,60.00,Saturday
12,11337631.292637617
611,5260433.020028182
2,6, 1, 6, 0,14, 0.00,60.00,Saturday
12,6335416.235782399
611,5654631.501473646
2,6, 1, 6, 0,15, 0.00,60.00,Saturday
12,3811342.7132270217
611,4430896.6061614039
2,6, 1, 6, 0,16, 0.00,60.00,Saturday
12,5140194.525901044
611,4915953.502123423
2,6, 1, 6, 0,17, 0.00,60.00,Saturday
12,4759269.38149948
611,8439591.159315039
2,6, 1, 6, 0,18, 0.00,60.00,Saturday
12,8715542.835840412
611,10089264.378894793
2,6, 1, 6, 0,19, 0.00,60.00,Saturday
12,11847303.221092228
611,12079946.238919134
2,6, 1, 6, 0,20, 0.00,60.00,Saturday
12,7988467.087519122
611,13875862.45140955
2,6, 1, 6, 0,21, 0.00,60.00,Saturday
12,10457495.379657865
611,15480312.491861562
2,6, 1, 6, 0,22, 0.00,60.00,Saturday
12,24834233.73078931
611,18378464.55205694
2,6, 1, 6, 0,23, 0.00,60.00,Saturday
12,7517386.56026782
611,19688091.38792106
2,6, 1, 6, 0,24, 0.00,60.00,Saturday
12,4850362.668016257
611,22192766.039644164
2,7, 1, 7, 0, 1, 0.00,60.00,Sunday
12,2883006.508225998
611,23777321.88019805
2,7, 1, 7, 0, 2, 0.00,60.00,Sunday
12,2603412.5933822568
611,24153103.524169279
2,7, 1, 7, 0, 3, 0.00,60.00,Sunday
12,2551203.6371635578
611,27051173.26210217
2,7, 1, 7, 0, 4, 0.00,60.00,Sunday
12,5384774.7158685
611,29152684.349017517
2,7, 1, 7, 0, 5, 0.00,60.00,Sunday
12,15667164.375853658
611,31905936.74515456
2,7, 1, 7, 0, 6, 0.00,60.00,Sunday
12,3155122.8412037238
611,31053137.632716784
2,7, 1, 7, 0, 7, 0.00,60.00,Sunday
12,9153295.709259509
611,31278161.31284295
2,7, 1, 7, 0, 8, 0.00,60.00,Sunday
12,5579577.372691343
611,23058716.417706234
2,7, 1, 7, 0, 9, 0.00,60.00,Sunday
12,4184759.886109348
611,21470510.03384382
2,7, 1, 7, 0,10, 0.00,60.00,Sunday
12,8218505.381060388
611,19956245.6237395
2,7, 1, 7, 0,11, 0.00,60.00,Sunday
12,4281184.599470664
611,17786118.96272077
2,7, 1, 7, 0,12, 0.00,60.00,Sunday
12,4038560.283367538
611,15554925.234130726
2,7, 1, 7, 0,13, 0.00,60.00,Sunday
12,5327850.157575679
611,14328853.653993294
2,7, 1, 7, 0,14, 0.00,60.00,Sunday
12,3930932.2122395664
611,13891020.614035167
2,7, 1, 7, 0,15, 0.00,60.00,Sunday
12,3986316.8182928266
611,13341768.867677989
2,7, 1, 7, 0,16, 0.00,60.00,Sunday
12,4107442.153125798
611,13270710.080987616
2,7, 1, 7, 0,17, 0.00,60.00,Sunday
12,11315183.089320086
611,12809054.519998013
2,7, 1, 7, 0,18, 0.00,60.00,Sunday
12,9338064.4682962
611,11304705.282312118
2,7, 1, 7, 0,19, 0.00,60.00,Sunday
12,6802532.793124562
611,10420480.484356462
2,7, 1, 7, 0,20, 0.00,60.00,Sunday
12,6689023.242548692
611,10481561.55220848
2,7, 1, 7, 0,21, 0.00,60.00,Sunday
12,6264555.905893438
611,11888622.202829419
2,7, 1, 7, 0,22, 0.00,60.00,Sunday
12,6856422.032039613
611,13942621.213011209
2,7, 1, 7, 0,23, 0.00,60.00,Sunday
12,6043789.751080392
611,14225704.221255137
2,7, 1, 7, 0,24, 0.00,60.00,Sunday
12,3545494.014931894
611,13827241.079313748
2,8, 1, 8, 0, 1, 0.00,60.00,Monday
12,2702356.911000076
611,14577414.931857264
2,8, 1, 8, 0, 2, 0.00,60.00,Monday
12,3568578.547606813
611,15510887.501044164
2,8, 1, 8, 0, 3, 0.00,60.00,Monday
12,2355750.994324726
611,17097394.48519319
2,8, 1, 8, 0, 4, 0.00,60.00,Monday
12,2338044.9140889958
611,19224963.233590034
2,8, 1, 8, 0, 5, 0.00,60.00,Monday
12,2302547.4064105919
611,20460792.63139862
2,8, 1, 8, 0, 6, 0.00,60.00,Monday
12,2707856.5968644435
611,20119933.526512956
2,8, 1, 8, 0, 7, 0.00,60.00,Monday
12,3711976.1010799754
611,20872891.285131135
2,8, 1, 8, 0, 8, 0.00,60.00,Monday
12,5477531.066157195
611,18558137.785114588
2,8, 1, 8, 0, 9, 0.00,60.00,Monday
12,10418168.62773623
611,12016671.739327243
2,8, 1, 8, 0,10, 0.00,60.00,Monday
12,3777375.636027366
611,7805368.046778978
2,8, 1, 8, 0,11, 0.00,60.00,Monday
12,3795067.3068176025
611,5709494.354564398
2,8, 1, 8, 0,12, 0.00,60.00,Monday
12,4956933.591626259
611,3804407.233540764
2,8, 1, 8, 0,13, 0.00,60.00,Monday
12,4711002.130184678
611,1054370.201431453
2,8, 1, 8, 0,14, 0.00,60.00,Monday
12,3464962.722907126
611,0.0
2,8, 1, 8, 0,15, 0.00,60.00,Monday
12,4914348.434816013
611,0.0
2,8, 1, 8, 0,16, 0.00,60.00,Monday
12,5361487.478733204
611,0.0
2,8, 1, 8, 0,17, 0.00,60.00,Monday
12,4626512.866572121
611,1678725.9103861927
2,8, 1, 8, 0,18, 0.00,60.00,Monday
12,7313920.760303499
611,6521226.275260532
2,8, 1, 8, 0,19, 0.00,60.00,Monday
12,16494403.249648836
611,8054163.6668761
2,8, 1, 8, 0,20, 0.00,60.00,Monday
12,6669737.191410385
611,9499384.572032495
2,8, 1, 8, 0,21, 0.00,60.00,Monday
12,6227253.885960917
611,9988949.479312784
2,8, 1, 8, 0,22, 0.00,60.00,Monday
12,6784445.145667465
611,12087364.788955559
2,8, 1, 8, 0,23, 0.00,60.00,Monday
12,4877946.485459533
611,12809511.750643239
2,8, 1, 8, 0,24, 0.00,60.00,Monday
12,3574721.0993041715
611,15315683.128038533
2,9, 1, 9, 0, 1, 0.00,60.00,Tuesday
12,2755314.18085514
611,17274359.527285607
2,9, 1, 9, 0, 2, 0.00,60.00,Tuesday
12,2487757.9449817298
611,18263181.709966415
2,9, 1, 9, 0, 3, 0.00,60.00,Tuesday
12,2395534.6871330237
611,19123450.881211483
2,9, 1, 9, 0, 4, 0.00,60.00,Tuesday
12,2349850.0754554665
611,19826162.393452296
2,9, 1, 9, 0, 5, 0.00,60.00,Tuesday
12,3441790.2098768365
611,20685567.562762
2,9, 1, 9, 0, 6, 0.00,60.00,Tuesday
12,2718855.2934303788
611,20680062.01012698
2,9, 1, 9, 0, 7, 0.00,60.00,Tuesday
12,3719492.5887083399
611,21255681.990569727
2,9, 1, 9, 0, 8, 0.00,60.00,Tuesday
12,5498746.613816264
611,17752658.049578828
2,9, 1, 9, 0, 9, 0.00,60.00,Tuesday
12,4020622.489323959
611,13111516.709989429
2,9, 1, 9, 0,10, 0.00,60.00,Tuesday
12,5096636.134469658
611,9627376.517624386
2,9, 1, 9, 0,11, 0.00,60.00,Tuesday
12,5058810.479107323
611,7408827.855801806
2,9, 1, 9, 0,12, 0.00,60.00,Tuesday
12,4984336.0665852739
611,5925255.693447645
2,9, 1, 9, 0,13, 0.00,60.00,Tuesday
12,3736088.214591696
611,4954038.921488443
2,9, 1, 9, 0,14, 0.00,60.00,Tuesday
12,3724584.8740120145
611,4054901.823421242
2,9, 1, 9, 0,15, 0.00,60.00,Tuesday
12,3773754.5794309384
611,2516653.0174902358
2,9, 1, 9, 0,16, 0.00,60.00,Tuesday
12,5088005.22828815
611,2546741.585536462
2,9, 1, 9, 0,17, 0.00,60.00,Tuesday
12,4698837.816810489
611,5362004.602694771
2,9, 1, 9, 0,18, 0.00,60.00,Tuesday
12,7246324.361305301
611,7625204.85558687
2,9, 1, 9, 0,19, 0.00,60.00,Tuesday
12,6772093.785544918
611,8870319.05785547
2,9, 1, 9, 0,20, 0.00,60.00,Tuesday
12,6666792.77613749
611,9349434.907356317
2,9, 1, 9, 0,21, 0.00,60.00,Tuesday
12,6264759.828243874
611,11899007.316759969
2,9, 1, 9, 0,22, 0.00,60.00,Tuesday
12,5616028.251429636
611,13068819.64877028
2,9, 1, 9, 0,23, 0.00,60.00,Tuesday
12,4919901.703023381
611,14946156.966088063
2,9, 1, 9, 0,24, 0.00,60.00,Tuesday
12,9515352.164276433
611,17927735.32042068
2,10, 1,10, 0, 1, 0.00,60.00,Wednesday
12,3339003.9505192765
611,19028767.84901549
2,10, 1,10, 0, 2, 0.00,60.00,Wednesday
12,2529783.5726362254
611,20403412.686421087
2,10, 1,10, 0, 3, 0.00,60.00,Wednesday
12,2433802.7758006665
611,21072322.39955136
2,10, 1,10, 0, 4, 0.00,60.00,Wednesday
12,2401570.285545048
611,22460107.48649183
2,10, 1,10, 0, 5, 0.00,60.00,Wednesday
12,2360220.248689234
611,23397886.2676844
2,10, 1,10, 0, 6, 0.00,60.00,Wednesday
12,3920960.2542866498
611,24108222.829603629
2,10, 1,10, 0, 7, 0.00,60.00,Wednesday
12,3753527.5675591935
611,22988974.747514056
2,10, 1,10, 0, 8, 0.00,60.00,Wednesday
12,4366107.703233117
611,21051553.642795225
2,10, 1,10, 0, 9, 0.00,60.00,Wednesday
12,4060096.499120577
611,15121801.939425106
2,10, 1,10, 0,10, 0.00,60.00,Wednesday
12,17319553.909021975
611,11477837.052972444
2,10, 1,10, 0,11, 0.00,60.00,Wednesday
12,13346296.67959455
611,8114646.980916883
2,10, 1,10, 0,12, 0.00,60.00,Wednesday
12,4621376.022649837
611,4604499.129286761
2,10, 1,10, 0,13, 0.00,60.00,Wednesday
12,3684773.251626079
611,2340731.770015374
2,10, 1,10, 0,14, 0.00,60.00,Wednesday
12,3678299.4544252099
611,1697733.2506567033
2,10, 1,10, 0,15, 0.00,60.00,Wednesday
12,4864704.874696585
611,220145.26108640462
2,10, 1,10, 0,16, 0.00,60.00,Wednesday
12,3846858.166299197
611,0.0
2,10, 1,10, 0,17, 0.00,60.00,Wednesday
12,4658355.17834543
611,3300353.136978526
2,10, 1,10, 0,18, 0.00,60.00,Wednesday
12,6062806.443975316
611,7194925.681571486
2,10, 1,10, 0,19, 0.00,60.00,Wednesday
12,7991524.515081458
611,8709013.632300809
2,10, 1,10, 0,20, 0.00,60.00,Wednesday
12,17178036.08835741
611,9697466.801964613
2,10, 1,10, 0,21, 0.00,60.00,Wednesday
12,6585130.410290435
611,10640861.905699222
2,10, 1,10, 0,22, 0.00,60.00,Wednesday
12,5625799.034618061
611,13566414.42631916
2,10, 1,10, 0,23, 0.00,60.00,Wednesday
12,4933924.19339671
611,15660277.609586087
2,10, 1,10, 0,24, 0.00,60.00,Wednesday
12,4810550.863402364
611,18334133.310083108
2,11, 1,11, 0, 1, 0.00,60.00,Thursday
12,2806431.5365482915
611,19877603.17157729
2,11, 1,11, 0, 2, 0.00,60.00,Thursday
12,3728680.2015506376
611,21451419.24606655
2,11, 1,11, 0, 3, 0.00,60.00,Thursday
12,2452737.2895324009
611,22036596.702505877
2,11, 1,11, 0, 4, 0.00,60.00,Thursday
12,2405464.298225069
611,22658417.11386981
2,11, 1,11, 0, 5, 0.00,60.00,Thursday
12,2352876.3611392939
611,23023885.53291368
2,11, 1,11, 0, 6, 0.00,60.00,Thursday
12,3885606.8879929117
611,22305568.235794069
2,11, 1,11, 0, 7, 0.00,60.00,Thursday
12,3733382.2183250656
611,21963036.460123224
2,11, 1,11, 0, 8, 0.00,60.00,Thursday
12,5559779.142141042
611,20726140.852711895
2,11, 1,11, 0, 9, 0.00,60.00,Thursday
12,15596498.578015497
611,18322830.951096249
2,11, 1,11, 0,10, 0.00,60.00,Thursday
12,5286626.8201645039
611,12438294.91944122
2,11, 1,11, 0,11, 0.00,60.00,Thursday
12,4935588.227559561
611,7551228.703019123
2,11, 1,11, 0,12, 0.00,60.00,Thursday
12,8935451.11315032
611,5060779.26500097
2,11, 1,11, 0,13, 0.00,60.00,Thursday
12,3501901.494455371
611,2194482.350396114
2,11, 1,11, 0,14, 0.00,60.00,Thursday
12,3476276.818544717
611,576190.7508727674
2,11, 1,11, 0,15, 0.00,60.00,Thursday
12,4763362.170968835
611,1253595.9228848948
2,11, 1,11, 0,16, 0.00,60.00,Thursday
12,4896381.034326464
611,2646133.380042085
2,11, 1,11, 0,17, 0.00,60.00,Thursday
12,4665044.396785706
611,3641013.665165121
2,11, 1,11, 0,18, 0.00,60.00,Thursday
12,6000017.263991413
611,3997273.3087730996
2,11, 1,11, 0,19, 0.00,60.00,Thursday
12,7818424.384691225
611,4121569.87902101
2,11, 1,11, 0,20, 0.00,60.00,Thursday
12,9286595.162292278
611,5543807.135522628
2,11, 1,11, 0,21, 0.00,60.00,Thursday
12,6161368.471140048
611,6633615.756388455
2,11, 1,11, 0,22, 0.00,60.00,Thursday
12,5483642.922053639
611,6326857.694316163
2,11, 1,11, 0,23, 0.00,60.00,Thursday
12,6017790.7178538939
611,8029438.417023996
2,11, 1,11, 0,24, 0.00,60.00,Thursday
12,3458164.4380298617
611,9379824.679420526
2,12, 1,12, 0, 1, 0.00,60.00,Friday
12,2633065.528053654
611,11048626.131782018
2,12, 1,12, 0, 2, 0.00,60.00,Friday
12,3529365.353439647
611,13517885.359597922
2,12, 1,12, 0, 3, 0.00,60.00,Friday
12,2313588.1634013999
611,14950176.184517293
2,12, 1,12, 0, 4, 0.00,60.00,Friday
12,2300891.775294337
611,17332872.550862504
2,12, 1,12, 0, 5, 0.00,60.00,Friday
12,2278701.9120007238
611,19246417.769363289
2,12, 1,12, 0, 6, 0.00,60.00,Friday
12,7258864.581724213
611,20051818.41684831
2,12, 1,12, 0, 7, 0.00,60.00,Friday
12,13378628.773309278
611,21326036.782792607
2,12, 1,12, 0, 8, 0.00,60.00,Friday
12,4341917.152758836
611,19819606.177591627
2,12, 1,12, 0, 9, 0.00,60.00,Friday
12,4108942.0390392786
611,17609349.263051467
2,12, 1,12, 0,10, 0.00,60.00,Friday
12,3933870.6375031818
611,15775158.58917034
2,12, 1,12, 0,11, 0.00,60.00,Friday
12,20977337.29446034
611,14298791.963156622
2,12, 1,12, 0,12, 0.00,60.00,Friday
12,15929306.03336499
611,11625327.788907078
2,12, 1,12, 0,13, 0.00,60.00,Friday
12,5160847.229304429
611,10998349.52111112
2,12, 1,12, 0,14, 0.00,60.00,Friday
12,5025197.225144908
611,9969447.753648689
2,12, 1,12, 0,15, 0.00,60.00,Friday
12,3913420.04652023
611,9629369.13116703
2,12, 1,12, 0,16, 0.00,60.00,Friday
12,4029296.740312168
611,9291013.821681962
2,12, 1,12, 0,17, 0.00,60.00,Friday
12,5946181.653578326
611,11094397.402462317
2,12, 1,12, 0,18, 0.00,60.00,Friday
12,7435294.087663172
611,11749698.89677642
2,12, 1,12, 0,19, 0.00,60.00,Friday
12,7982549.847713772
611,10947427.181129724
2,12, 1,12, 0,20, 0.00,60.00,Friday
12,8358848.379161995
611,10826273.672299799
2,12, 1,12, 0,21, 0.00,60.00,Friday
12,7655193.318729535
611,13194569.081131377
2,12, 1,12, 0,22, 0.00,60.00,Friday
12,8825304.69709594
611,14465593.755516369
2,12, 1,12, 0,23, 0.00,60.00,Friday
12,4925987.710605772
611,15256097.892083433
2,12, 1,12, 0,24, 0.00,60.00,Friday
12,4727904.5147124719
611,16249421.59970255
2,13, 1,13, 0, 1, 0.00,60.00,Saturday
12,2725606.4833762475
611,15761441.388235076
2,13, 1,13, 0, 2, 0.00,60.00,Saturday
12,5131241.064103123
611,14720367.316541793
2,13, 1,13, 0, 3, 0.00,60.00,Saturday
12,2321591.10462654
611,15357740.417789584
2,13, 1,13, 0, 4, 0.00,60.00,Saturday
12,2264040.698870507
611,15456164.939821197
2,13, 1,13, 0, 5, 0.00,60.00,Saturday
12,2202024.124569678
611,15341462.982843295
2,13, 1,13, 0, 6, 0.00,60.00,Saturday
12,18459050.153101908
611,16673058.887547574
2,13, 1,13, 0, 7, 0.00,60.00,Saturday
12,6390002.558505126
611,15811665.935432528
2,13, 1,13, 0, 8, 0.00,60.00,Saturday
12,4206627.725290595
611,12929747.78368914
2,13, 1,13, 0, 9, 0.00,60.00,Saturday
12,3911039.2260241454
611,7530791.145497784
2,13, 1,13, 0,10, 0.00,60.00,Saturday
12,6338227.636644646
611,3918591.552792494
2,13, 1,13, 0,11, 0.00,60.00,Saturday
12,3709735.9083962345
611,1363838.802027491
2,13, 1,13, 0,12, 0.00,60.00,Saturday
12,5916344.198063199
611,0.0
2,13, 1,13, 0,13, 0.00,60.00,Saturday
12,11255233.650507452
611,0.0
2,13, 1,13, 0,14, 0.00,60.00,Saturday
12,6085052.031515548
611,0.0
2,13, 1,13, 0,15, 0.00,60.00,Saturday
12,3724337.5193976296
611,0.0
2,13, 1,13, 0,16, 0.00,60.00,Saturday
12,5044220.42180768
611,0.0
2,13, 1,13, 0,17, 0.00,60.00,Saturday
12,4593549.363651183
611,0.0
2,13, 1,13, 0,18, 0.00,60.00,Saturday
12,8521385.512800135
611,0.0
2,13, 1,13, 0,19, 0.00,60.00,Saturday
12,11662512.008006908
611,1207687.0185832929
2,13, 1,13, 0,20, 0.00,60.00,Saturday
12,7748167.738645875
611,1566874.957638815
2,13, 1,13, 0,21, 0.00,60.00,Saturday
12,10210740.872273684
611,2689983.857384758
2,13, 1,13, 0,22, 0.00,60.00,Saturday
12,24691874.037227587
611,5503465.356446125
2,13, 1,13, 0,23, 0.00,60.00,Saturday
12,7470564.89111615
611,7551359.721050555
2,13, 1,13, 0,24, 0.00,60.00,Saturday
12,4580936.496694209
611,8468048.354676903
2,14, 1,14, 0, 1, 0.00,60.00,Sunday
12,2578336.577579908
611,8261455.501619309
2,14, 1,14, 0, 2, 0.00,60.00,Sunday
12,2291902.201288791
611,8288874.29415906
2,14, 1,14, 0, 3, 0.00,60.00,Sunday
12,2193056.9909210565
611,8811908.575723194
2,14, 1,14, 0, 4, 0.00,60.00,Sunday
12,5011248.6219588019
611,9689727.495000827
2,14, 1,14, 0, 5, 0.00,60.00,Sunday
12,15325644.98490818
611,10813799.312461466
2,14, 1,14, 0, 6, 0.00,60.00,Sunday
12,2843846.040846997
611,10254753.074460127
2,14, 1,14, 0, 7, 0.00,60.00,Sunday
12,8776011.637791748
611,10384902.311224524
2,14, 1,14, 0, 8, 0.00,60.00,Sunday
12,5313666.121769275
611,9492799.034813969
2,14, 1,14, 0, 9, 0.00,60.00,Sunday
12,3891963.3537178637
611,6559317.901874959
2,14, 1,14, 0,10, 0.00,60.00,Sunday
12,8001467.712173209
611,4188019.1896244969
2,14, 1,14, 0,11, 0.00,60.00,Sunday
12,3590123.6322392874
611,1468399.2026657426
2,14, 1,14, 0,12, 0.00,60.00,Sunday
12,3553123.3920811729
611,0.0
2,14, 1,14, 0,13, 0.00,60.00,Sunday
12,4867478.862403174
611,0.0
2,14, 1,14, 0,14, 0.00,60.00,Sunday
12,3478167.792656496
611,0.0
2,14, 1,14, 0,15, 0.00,60.00,Sunday
12,3544337.5193976296
611,0.0
2,14, 1,14, 0,16, 0.00,60.00,Sunday
12,3666858.166299197
611,0.0
2,14, 1,14, 0,17, 0.00,60.00,Sunday
12,11036584.341862372
611,978961.3752123123
2,14, 1,14, 0,18, 0.00,60.00,Sunday
12,9077157.85707036
611,1457773.1002627286
2,14, 1,14, 0,19, 0.00,60.00,Sunday
12,6638764.708650529
611,2080295.056846845
2,14, 1,14, 0,20, 0.00,60.00,Sunday
12,6550110.534900719
611,3407181.072382863
2,14, 1,14, 0,21, 0.00,60.00,Sunday
12,6140320.487668624
611,5561709.190523616
2,14, 1,14, 0,22, 0.00,60.00,Sunday
12,6731641.857863411
611,7527842.6296250079
2,14, 1,14, 0,23, 0.00,60.00,Sunday
12,5940768.593371985
611,8975242.753296569
2,14, 1,14, 0,24, 0.00,60.00,Sunday
12,3501530.9216303459
611,11588341.166187153
2,15, 1,15, 0, 1, 0.00,60.00,Monday
12,3804799.4664792625
611,12928604.923180426
2,15, 1,15, 0, 2, 0.00,60.00,Monday
12,2415624.7029503525
611,14589666.104277628
2,15, 1,15, 0, 3, 0.00,60.00,Monday
12,2325822.8779907969
611,15573251.117926607
2,15, 1,15, 0, 4, 0.00,60.00,Monday
12,2291533.4086295508
611,16856280.829504733
2,15, 1,15, 0, 5, 0.00,60.00,Monday
12,2242454.148921912
611,17400434.979855475
2,15, 1,15, 0, 6, 0.00,60.00,Monday
12,2652985.4574368034
611,17325521.667114207
2,15, 1,15, 0, 7, 0.00,60.00,Monday
12,3668134.999411644
611,18640204.016213586
2,15, 1,15, 0, 8, 0.00,60.00,Monday
12,5439717.448393544
611,16615188.436469406
2,15, 1,15, 0, 9, 0.00,60.00,Monday
12,10385697.80137061
611,9322920.996880936
2,15, 1,15, 0,10, 0.00,60.00,Monday
12,3720230.4672341297
611,4895147.13558857
2,15, 1,15, 0,11, 0.00,60.00,Monday
12,3536345.334486725
611,1700435.7607154444
2,15, 1,15, 0,12, 0.00,60.00,Monday
12,4702422.880927036
611,0.0
2,15, 1,15, 0,13, 0.00,60.00,Monday
12,4691427.600017695
611,0.0
2,15, 1,15, 0,14, 0.00,60.00,Monday
12,3464962.722907126
611,0.0
2,15, 1,15, 0,15, 0.00,60.00,Monday
12,4734819.55764351
611,0.0
2,15, 1,15, 0,16, 0.00,60.00,Monday
12,5182443.671192324
611,0.0
2,15, 1,15, 0,17, 0.00,60.00,Monday
12,4593549.363651183
611,0.0
2,15, 1,15, 0,18, 0.00,60.00,Monday
12,7585074.980423221
611,0.0
2,15, 1,15, 0,19, 0.00,60.00,Monday
12,15700151.456023526
611,967072.8085277116
2,15, 1,15, 0,20, 0.00,60.00,Monday
12,6530253.076550373
611,2395904.148110155
2,15, 1,15, 0,21, 0.00,60.00,Monday
12,6114296.502817361
611,4236390.768931802
2,15, 1,15, 0,22, 0.00,60.00,Monday
12,6660500.064324935
611,5732266.483121561
2,15, 1,15, 0,23, 0.00,60.00,Monday
12,4796054.500059943
611,8639014.516990945
2,15, 1,15, 0,24, 0.00,60.00,Monday
12,3467431.774374256
611,9851780.51733352
2,16, 1,16, 0, 1, 0.00,60.00,Tuesday
12,3740718.353951051
611,9666322.198438347
2,16, 1,16, 0, 2, 0.00,60.00,Tuesday
12,2336700.7316348
611,10570320.347372663
2,16, 1,16, 0, 3, 0.00,60.00,Tuesday
12,2206587.764078618
611,9500987.632085527
2,16, 1,16, 0, 4, 0.00,60.00,Tuesday
12,2230055.9008141874
611,13725427.730452927
2,16, 1,16, 0, 5, 0.00,60.00,Tuesday
12,2209140.579375259
611,15703881.29441882
2,16, 1,16, 0, 6, 0.00,60.00,Tuesday
12,2628498.576428837
611,16078483.0343812
2,16, 1,16, 0, 7, 0.00,60.00,Tuesday
12,3618909.1882722948
611,16133290.69399762
2,16, 1,16, 0, 8, 0.00,60.00,Tuesday
12,5449701.846251099
611,15202037.934895324
2,16, 1,16, 0, 9, 0.00,60.00,Tuesday
12,4042330.4996964714
611,14217036.337641657
2,16, 1,16, 0,10, 0.00,60.00,Tuesday
12,6467513.005299596
611,13854109.537355209
2,16, 1,16, 0,11, 0.00,60.00,Tuesday
12,5157239.311567039