Program Version,EnergyPlus, Version 9.2.0-921312fa1d, YMD=2019.10.18 18:59
1,5,Environment Title[],Latitude[deg],Longitude[deg],Time Zone[],Elevation[m]
2,8,Day of Simulation[],Month[],Day of Month[],DST Indicator[1=yes 0=no],Hour[],StartMinute[],EndMinute[],DayType
3,5,Cumulative Day of Simulation[],Month[],Day of Month[],DST Indicator[1=yes 0=no],DayType  ! When Daily Report Variables Requested
4,2,Cumulative Days of Simulation[],Month[]  ! When Monthly Report Variables Requested
5,1,Cumulative Days of Simulation[] ! When Run Period Report Variables Requested
6,1,Calendar Year of Simulation[] ! When Annual Report Variables Requested
276,9,EMS,central ac supply fan cool disaggregate [J] !Monthly [Value,Min,Day,Hour,Minute,Max,Day,Hour,Minute]
277,11,EMS,central ac supply fan cool disaggregate [J] !RunPeriod [Value,Min,Month,Day,Hour,Minute,Max,Month,Day,Hour,Minute]
278,11,EMS,furnace supply fan heat disaggregate [J] !RunPeriod [Value,Min,Month,Day,Hour,Minute,Max,Month,Day,Hour,Minute]
279,9,EMS,furnace supply fan heat disaggregate [J] !Monthly [Value,Min,Day,Hour,Minute,Max,Day,Hour,Minute]
280,11,EMS,water heater EC adjustment [J] !RunPeriod [Value,Min,Month,Day,Hour,Minute,Max,Month,Day,Hour,Minute]
281,1,LIVING,Zone Mean Air Temperature [C] !Hourly
282,1,VENTED ATTIC,Zone Mean Air Temperature [C] !Hourly
283,1,VENTED CRAWLSPACE,Zone Mean Air Temperature [C] !Hourly
585,11,CENTRAL AC CLG COIL,Cooling Coil Electric Energy [J] !RunPeriod [Value,Min,Month,Day,Hour,Minute,Max,Month,Day,Hour,Minute]
611,11,FURNACE HTG COIL,Heating Coil Gas Energy [J] !RunPeriod [Value,Min,Month,Day,Hour,Minute,Max,Month,Day,Hour,Minute]
876,11,WATER USE CONNECTIONS 1,Water Use Connections Plant Hot Water Energy [J] !RunPeriod [Value,Min,Month,Day,Hour,Minute,Max,Month,Day,Hour,Minute]
913,11,WATER HEATER,Water Heater Heat Loss Energy [J] !RunPeriod [Value,Min,Month,Day,Hour,Minute,Max,Month,Day,Hour,Minute]
928,11,WATER HEATER,Water Heater Electric Energy [J] !RunPeriod [Value,Min,Month,Day,Hour,Minute,Max,Month,Day,Hour,Minute]
966,11,WATER HEATER,Water Heater Off Cycle Parasitic Electric Energy [J] !RunPeriod [Value,Min,Month,Day,Hour,Minute,Max,Month,Day,Hour,Minute]
968,11,WATER HEATER,Water Heater On Cycle Parasitic Electric Energy [J] !RunPeriod [Value,Min,Month,Day,Hour,Minute,Max,Month,Day,Hour,Minute]
1131,11,CENTRAL AC CLG COIL,Cooling Coil Crankcase Heater Electric Energy [J] !RunPeriod [Value,Min,Month,Day,Hour,Minute,Max,Month,Day,Hour,Minute]
End of Data Dictionary
1,RUN PERIOD 1,  39.83,-104.65,  -7.00,1650.00
2,1, 1, 1, 0, 1, 0.00,60.00,Monday
281,20.00000000000029
282,-13.315992007522006
283,10.819303796852365
2,1, 1, 1, 0, 2, 0.00,60.00,Monday
281,20.000000000000175
282,-13.62450439131951
283,9.875546265222719
2,1, 1, 1, 0, 3, 0.00,60.00,Monday
281,20.000000000000207
282,-13.914085482699682
283,9.27149246778895
2,1, 1, 1, 0, 4, 0.00,60.00,Monday
281,19.999999999999838
282,-14.908145680717365
283,8.728823573203539
2,1, 1, 1, 0, 5, 0.00,60.00,Monday
281,20.00000000000026
282,-14.996129601672456
283,8.34447037148291
2,1, 1, 1, 0, 6, 0.00,60.00,Monday
281,20.000000000000026
282,-14.187819260750194
283,8.155284027674839
2,1, 1, 1, 0, 7, 0.00,60.00,Monday
281,20.000000000000005
282,-13.247856322380076
283,7.963436539172559
2,1, 1, 1, 0, 8, 0.00,60.00,Monday
281,19.999999999999998
282,-8.857858910542147
283,7.92424590268646
2,1, 1, 1, 0, 9, 0.00,60.00,Monday
281,19.999999999999959
282,-6.97722141222738
283,7.933180233015456
2,1, 1, 1, 0,10, 0.00,60.00,Monday
281,19.999999999999898
282,-3.2072912636230979
283,8.340866151683708
2,1, 1, 1, 0,11, 0.00,60.00,Monday
281,19.999999999999998
282,0.3667871067106055
283,8.897738745296167
2,1, 1, 1, 0,12, 0.00,60.00,Monday
281,20.000000000000094
282,2.5274338108848557
283,9.217968823288852
2,1, 1, 1, 0,13, 0.00,60.00,Monday
281,20.0000000000001
282,4.272740843965656
283,9.591409877690412
2,1, 1, 1, 0,14, 0.00,60.00,Monday
281,20.00000000000006
282,3.2873587894470459
283,9.533506851299454
2,1, 1, 1, 0,15, 0.00,60.00,Monday
281,20.00000000000001
282,3.859124246385702
283,9.69566419041601
2,1, 1, 1, 0,16, 0.00,60.00,Monday
281,20.0
282,2.2042608654289994
283,9.45321402583173
2,1, 1, 1, 0,17, 0.00,60.00,Monday
281,20.000000000000005
282,-0.4286467911949464
283,8.909183215224167
2,1, 1, 1, 0,18, 0.00,60.00,Monday
281,20.000000000000026
282,-2.1179199298432436
283,8.497856714540639
2,1, 1, 1, 0,19, 0.00,60.00,Monday
281,20.000000000000158
282,-4.853495424493845
283,7.835071858571569
2,1, 1, 1, 0,20, 0.00,60.00,Monday
281,19.99999999999992
282,-5.528612777288747
283,7.483984819589486
2,1, 1, 1, 0,21, 0.00,60.00,Monday
281,19.999999999999994
282,-5.99150223517146
283,7.161130951465364
2,1, 1, 1, 0,22, 0.00,60.00,Monday
281,20.000000000000005
282,-6.143444659935134
283,6.908959132815102
2,1, 1, 1, 0,23, 0.00,60.00,Monday
281,20.00000000000002
282,-6.16887072606861
283,6.670204478544865
2,1, 1, 1, 0,24, 0.00,60.00,Monday
281,19.999999999999998
282,-5.0783298956278239
283,6.631382595589856
2,2, 1, 2, 0, 1, 0.00,60.00,Tuesday
281,20.0
282,-5.0529863012857378
283,6.441215749590503
2,2, 1, 2, 0, 2, 0.00,60.00,Tuesday
281,20.00000000000018
282,-5.626274301209609
283,6.1460236589605989
2,2, 1, 2, 0, 3, 0.00,60.00,Tuesday
281,20.0000000000002
282,-5.057043798322058
283,6.0473323854722429
2,2, 1, 2, 0, 4, 0.00,60.00,Tuesday
281,20.00000000000009
282,-6.6901875368896379
283,5.5962534529306089
2,2, 1, 2, 0, 5, 0.00,60.00,Tuesday
281,20.00000000000021
282,-5.682663754617742
283,5.5498056631919
2,2, 1, 2, 0, 6, 0.00,60.00,Tuesday
281,20.000000000000015
282,-6.185257510996743
283,5.32098845547876
2,2, 1, 2, 0, 7, 0.00,60.00,Tuesday
281,20.00000000000004
282,-4.658372395379478
283,5.41943284103298
2,2, 1, 2, 0, 8, 0.00,60.00,Tuesday
281,19.99999999999981
282,-3.4299220679415405
283,5.574468272532279
2,2, 1, 2, 0, 9, 0.00,60.00,Tuesday
281,19.999999999999888
282,-2.1580324106368886
283,5.694958649674905
2,2, 1, 2, 0,10, 0.00,60.00,Tuesday
281,20.000000000000104
282,1.4987989443764496
283,6.342521670093667
2,2, 1, 2, 0,11, 0.00,60.00,Tuesday
281,20.000000000000087
282,4.901779746969523
283,7.11170237402626
2,2, 1, 2, 0,12, 0.00,60.00,Tuesday
281,20.000000000000037
282,8.08939876115084
283,7.9989365063454029
2,2, 1, 2, 0,13, 0.00,60.00,Tuesday
281,20.00000000000005
282,9.069512122127032
283,8.48764488804026
2,2, 1, 2, 0,14, 0.00,60.00,Tuesday
281,20.000000000000069
282,9.334160543059986
283,8.79297823770067
2,2, 1, 2, 0,15, 0.00,60.00,Tuesday
281,20.0
282,9.962302840258288
283,9.21203022509201
2,2, 1, 2, 0,16, 0.00,60.00,Tuesday
281,19.999999999999994
282,7.881839098196905
283,8.932622777969052
2,2, 1, 2, 0,17, 0.00,60.00,Tuesday
281,20.000000000000065
282,6.796212974658892
283,8.812743027210763
2,2, 1, 2, 0,18, 0.00,60.00,Tuesday
281,20.00000000000015
282,5.0831827109771219
283,8.515832520177371
2,2, 1, 2, 0,19, 0.00,60.00,Tuesday
281,20.000000000000097
282,1.3315262861250823
283,7.674402824055093
2,2, 1, 2, 0,20, 0.00,60.00,Tuesday
281,19.999999999999948
282,0.13382307255832916
283,7.346154907882079
2,2, 1, 2, 0,21, 0.00,60.00,Tuesday
281,19.999999999999998
282,-1.578694162966777
283,6.901840116001946
2,2, 1, 2, 0,22, 0.00,60.00,Tuesday
281,20.000000000000033
282,-1.1356169559113914
283,6.847515291857392
2,2, 1, 2, 0,23, 0.00,60.00,Tuesday
281,20.000000000000119
282,-1.553725686452952
283,7.02484323128436
2,2, 1, 2, 0,24, 0.00,60.00,Tuesday
281,20.000000000000047
282,-0.3465929311032454
283,6.832234696259232
2,3, 1, 3, 0, 1, 0.00,60.00,Wednesday
281,20.00000000000008
282,-0.7610727065416801
283,6.606472627740316
2,3, 1, 3, 0, 2, 0.00,60.00,Wednesday
281,20.000000000000158
282,-0.7173256200889877
283,6.489673787272792
2,3, 1, 3, 0, 3, 0.00,60.00,Wednesday
281,20.000000000000047
282,-1.1818296001013556
283,6.284942326584716
2,3, 1, 3, 0, 4, 0.00,60.00,Wednesday
281,19.999999999999966
282,-1.7557135558045015
283,6.0473472924802069
2,3, 1, 3, 0, 5, 0.00,60.00,Wednesday
281,20.00000000000014
282,-1.7662394328314238
283,5.90670539170769
2,3, 1, 3, 0, 6, 0.00,60.00,Wednesday
281,20.000000000000168
282,-1.1849043844107794
283,5.888752179103907
2,3, 1, 3, 0, 7, 0.00,60.00,Wednesday
281,19.999999999999849
282,-1.1815235394000583
283,5.784851782922333
2,3, 1, 3, 0, 8, 0.00,60.00,Wednesday
281,20.00000000000013
282,-0.6833318631615571
283,5.770901030572283
2,3, 1, 3, 0, 9, 0.00,60.00,Wednesday
281,20.000000000000147
282,3.0304118487725155
283,6.387291043695675
2,3, 1, 3, 0,10, 0.00,60.00,Wednesday
281,19.999999999999959
282,5.329253339317512
283,6.915044799678587
2,3, 1, 3, 0,11, 0.00,60.00,Wednesday
281,20.000000000000005
282,5.671535367045938
283,7.176331335900568
2,3, 1, 3, 0,12, 0.00,60.00,Wednesday
281,20.000000000000026
282,6.60322156720389
283,7.489189463406503
2,3, 1, 3, 0,13, 0.00,60.00,Wednesday
281,19.99999999999998
282,5.581653093826204
283,7.478489978041077
2,3, 1, 3, 0,14, 0.00,60.00,Wednesday
281,20.000000000000119
282,4.583416798882159
283,7.406811701775856
2,3, 1, 3, 0,15, 0.00,60.00,Wednesday
281,19.999999999999976
282,2.3590760880807024
283,6.997473792996186
2,3, 1, 3, 0,16, 0.00,60.00,Wednesday
281,20.000000000000058
282,-0.15996607342474107
283,6.4935898212520339
2,3, 1, 3, 0,17, 0.00,60.00,Wednesday
281,20.000000000000005
282,-2.73766327370795
283,5.927085463790656
2,3, 1, 3, 0,18, 0.00,60.00,Wednesday
281,19.99999999999984
282,-5.348607628922613
283,5.277925553444887
2,3, 1, 3, 0,19, 0.00,60.00,Wednesday
281,20.000000000000197
282,-5.378522274927122
283,5.098343731213897
2,3, 1, 3, 0,20, 0.00,60.00,Wednesday
281,20.00000000000007
282,-6.390297032937866
283,4.625446122113368
2,3, 1, 3, 0,21, 0.00,60.00,Wednesday
281,20.00000000000021
282,-8.234115812111286
283,4.122864025264481
2,3, 1, 3, 0,22, 0.00,60.00,Wednesday
281,20.00000000000005
282,-9.62822813810366
283,3.6927875455921246
2,3, 1, 3, 0,23, 0.00,60.00,Wednesday
281,19.999999999999834
282,-11.072302742120721
283,3.189420466387358
2,3, 1, 3, 0,24, 0.00,60.00,Wednesday
281,20.000000000000047
282,-12.147851468238223
283,2.772221191624064
2,4, 1, 4, 0, 1, 0.00,60.00,Thursday
281,20.000000000000129
282,-12.434863410579803
283,2.3286321090357786
2,4, 1, 4, 0, 2, 0.00,60.00,Thursday
281,20.00000000000008
282,-13.955080673017495
283,1.6036134241566987
2,4, 1, 4, 0, 3, 0.00,60.00,Thursday
281,20.0000000000002
282,-15.805808842055065
283,1.2880805331613697
2,4, 1, 4, 0, 4, 0.00,60.00,Thursday
281,20.00000000000001
282,-14.732555815263114
283,1.25485907298758
2,4, 1, 4, 0, 5, 0.00,60.00,Thursday
281,20.000000000000087
282,-14.404456251659049
283,1.0926250697605873
2,4, 1, 4, 0, 6, 0.00,60.00,Thursday
281,20.00000000000025
282,-13.692992207341332
283,1.0260768145058388
2,4, 1, 4, 0, 7, 0.00,60.00,Thursday
281,20.00000000000014
282,-14.440006593583594
283,1.0896105942296775
2,4, 1, 4, 0, 8, 0.00,60.00,Thursday
281,19.999999999999927
282,-13.097199796728227
283,1.3988103692155217
2,4, 1, 4, 0, 9, 0.00,60.00,Thursday
281,20.000000000000186
282,-10.672658984293224
283,1.8697186102653765
2,4, 1, 4, 0,10, 0.00,60.00,Thursday
281,19.999999999999909
282,-2.5681863312040198
283,2.8085456839427378
2,4, 1, 4, 0,11, 0.00,60.00,Thursday
281,20.00000000000013
282,1.9343835508397483
283,3.6881555194859567
2,4, 1, 4, 0,12, 0.00,60.00,Thursday
281,20.00000000000017
282,2.074445895527183
283,4.056372059975495
2,4, 1, 4, 0,13, 0.00,60.00,Thursday
281,20.000000000000229
282,7.6994002141545609
283,5.095051233407752
2,4, 1, 4, 0,14, 0.00,60.00,Thursday
281,20.00000000000001
282,9.407901884989699
283,5.876112955629319
2,4, 1, 4, 0,15, 0.00,60.00,Thursday
281,20.000000000000005
282,10.89076694461016
283,6.523761630233167
2,4, 1, 4, 0,16, 0.00,60.00,Thursday
281,19.999999999999884
282,9.964305877827073
283,6.6945494102904219
2,4, 1, 4, 0,17, 0.00,60.00,Thursday
281,19.999999999999916
282,7.9573231398063639
283,6.346138977867432
2,4, 1, 4, 0,18, 0.00,60.00,Thursday
281,20.000000000000005
282,7.177525913860423
283,6.390831253814957
2,4, 1, 4, 0,19, 0.00,60.00,Thursday
281,19.999999999999948
282,6.09114033814128
283,6.267988364863587
2,4, 1, 4, 0,20, 0.00,60.00,Thursday
281,20.000000000000079
282,6.995442987582837
283,6.566776039552002
2,4, 1, 4, 0,21, 0.00,60.00,Thursday
281,19.999999999999927
282,6.030498631235591
283,6.4187061967825189
2,4, 1, 4, 0,22, 0.00,60.00,Thursday
281,20.00000000000008
282,5.499050524170311
283,6.324603561141362
2,4, 1, 4, 0,23, 0.00,60.00,Thursday
281,20.000000000000055
282,4.90592657190295
283,6.224157676500277
2,4, 1, 4, 0,24, 0.00,60.00,Thursday
281,20.000000000000019
282,9.744880729203445
283,7.293400089847771
2,5, 1, 5, 0, 1, 0.00,60.00,Friday
281,19.999999999999959
282,5.136800492465171
283,6.500380065834143
2,5, 1, 5, 0, 2, 0.00,60.00,Friday
281,20.0
282,10.298874648240105
283,7.522087338651091
2,5, 1, 5, 0, 3, 0.00,60.00,Friday
281,20.0000000000001
282,10.892759254866645
283,8.058496241875029
2,5, 1, 5, 0, 4, 0.00,60.00,Friday
281,20.000000000000076
282,9.308132325831992
283,7.826822261379291
2,5, 1, 5, 0, 5, 0.00,60.00,Friday
281,20.00000000000005
282,9.244732656477906
283,7.819823189360803
2,5, 1, 5, 0, 6, 0.00,60.00,Friday
281,20.000000000000126
282,9.257351359354198
283,7.923035801067265
2,5, 1, 5, 0, 7, 0.00,60.00,Friday
281,19.99999999999994
282,5.113452892335057
283,6.598789519992982
2,5, 1, 5, 0, 8, 0.00,60.00,Friday
281,19.999999999999934
282,9.069447549029542
283,7.741442675261315
2,5, 1, 5, 0, 9, 0.00,60.00,Friday
281,20.000000000000019
282,8.729443941954767
283,7.990344007093359
2,5, 1, 5, 0,10, 0.00,60.00,Friday
281,20.050365711784445
282,12.435823262433166
283,9.18933482533887
2,5, 1, 5, 0,11, 0.00,60.00,Friday
281,20.031481483236694
282,12.628031714304767
283,9.371342432580138
2,5, 1, 5, 0,12, 0.00,60.00,Friday
281,20.65004581161106
282,14.758825617881957
283,10.058537602887017
2,5, 1, 5, 0,13, 0.00,60.00,Friday
281,21.020852976794577
282,14.297089736611401
283,10.291138311682671
2,5, 1, 5, 0,14, 0.00,60.00,Friday
281,21.150568709732374
282,12.804517887930948
283,10.283008874734099
2,5, 1, 5, 0,15, 0.00,60.00,Friday
281,21.06506807840815
282,10.139073941342215
283,9.95583036410433
2,5, 1, 5, 0,16, 0.00,60.00,Friday
281,20.939674821170838
282,8.54309331226167
283,9.55511286440863
2,5, 1, 5, 0,17, 0.00,60.00,Friday
281,20.416461993826517
282,5.9076449673432329
283,8.905417880311785
2,5, 1, 5, 0,18, 0.00,60.00,Friday
281,20.083304846150385
282,5.658281291385223
283,8.780118968508817
2,5, 1, 5, 0,19, 0.00,60.00,Friday
281,20.00063889838093
282,3.9765765222984799
283,8.254379730046076
2,5, 1, 5, 0,20, 0.00,60.00,Friday
281,20.000010559040989
282,3.320777179177212
283,7.9368716500465
2,5, 1, 5, 0,21, 0.00,60.00,Friday
281,20.000000335277947
282,1.75807441743415
283,7.425147165080251
2,5, 1, 5, 0,22, 0.00,60.00,Friday
281,20.000000014695404
282,0.19436838260274545
283,6.898199497261822
2,5, 1, 5, 0,23, 0.00,60.00,Friday
281,20.00000000075956
282,0.5830328724975561
283,6.790379924429791
2,5, 1, 5, 0,24, 0.00,60.00,Friday
281,20.000000000041277
282,-0.049462133023794017
283,6.505756655050783
2,6, 1, 6, 0, 1, 0.00,60.00,Saturday
281,20.000000000002463
282,-0.06503924653787625
283,6.313848199029839
2,6, 1, 6, 0, 2, 0.00,60.00,Saturday
281,20.000000000000126
282,0.9649003739108694
283,6.3617363712698788
2,6, 1, 6, 0, 3, 0.00,60.00,Saturday
281,20.000000000000214
282,0.5184784147927848
283,6.15344269186551
2,6, 1, 6, 0, 4, 0.00,60.00,Saturday
281,20.000000000000147
282,-0.035400661584209788
283,5.907314098940548
2,6, 1, 6, 0, 5, 0.00,60.00,Saturday
281,19.999999999999877
282,-0.647456556463432
283,5.667321746641905
2,6, 1, 6, 0, 6, 0.00,60.00,Saturday
281,19.999999999999905
282,-0.1637288068324686
283,5.658744190012795
2,6, 1, 6, 0, 7, 0.00,60.00,Saturday
281,20.000000000000044
282,-0.6917190459591954
283,5.443936078522558
2,6, 1, 6, 0, 8, 0.00,60.00,Saturday
281,19.999999999999959
282,-0.6826317140719997
283,5.316576863557798
2,6, 1, 6, 0, 9, 0.00,60.00,Saturday
281,20.000000000000108
282,-0.675757864006965
283,5.227099793392065
2,6, 1, 6, 0,10, 0.00,60.00,Saturday
281,20.000000000000069
282,-0.07814769289602874
283,5.281488168688283
2,6, 1, 6, 0,11, 0.00,60.00,Saturday
281,20.000000000000079
282,-0.06333676745403547
283,5.27795597171668
2,6, 1, 6, 0,12, 0.00,60.00,Saturday
281,20.000000000000008
282,0.9989894619438822
283,5.499089689654932
2,6, 1, 6, 0,13, 0.00,60.00,Saturday
281,19.999999999999998
282,1.6478639108075318
283,5.7018066983092539
2,6, 1, 6, 0,14, 0.00,60.00,Saturday
281,19.999999999999905
282,1.078211102244491
283,5.685579236055801
2,6, 1, 6, 0,15, 0.00,60.00,Saturday
281,19.99999999999998
282,1.65881676556063
283,5.87924355653447
2,6, 1, 6, 0,16, 0.00,60.00,Saturday
281,20.000000000000015
282,0.5887213680392286
283,5.7600968207568619
2,6, 1, 6, 0,17, 0.00,60.00,Saturday
281,20.0000000000001
282,-0.5956538322764408
283,5.531417875367014
2,6, 1, 6, 0,18, 0.00,60.00,Saturday
281,20.000000000000019
282,-1.6704744207333425
283,5.265763444287066
2,6, 1, 6, 0,19, 0.00,60.00,Saturday
281,20.00000000000026
282,-3.226691217658628
283,4.850170023462951
2,6, 1, 6, 0,20, 0.00,60.00,Saturday
281,20.000000000000158
282,-4.355260219485764
283,4.482907951573415
2,6, 1, 6, 0,21, 0.00,60.00,Saturday
281,20.000000000000158
282,-5.817771777251434
283,3.9925416938092597
2,6, 1, 6, 0,22, 0.00,60.00,Saturday
281,19.999999999999795
282,-7.593986001000119
283,3.4774917051280656
2,6, 1, 6, 0,23, 0.00,60.00,Saturday
281,19.999999999999927
282,-7.701948818017817
283,3.241269858050203
2,6, 1, 6, 0,24, 0.00,60.00,Saturday
281,20.000000000000179
282,-8.784352776322067
283,2.8434734116150146
2,7, 1, 7, 0, 1, 0.00,60.00,Sunday
281,19.999999999999866
282,-8.871203976495722
283,2.6295821800494916
2,7, 1, 7, 0, 2, 0.00,60.00,Sunday
281,20.00000000000013
282,-8.334207614242267
283,2.5497288078170348
2,7, 1, 7, 0, 3, 0.00,60.00,Sunday
281,19.99999999999984
282,-10.471497549657057
283,1.9801291566183133
2,7, 1, 7, 0, 4, 0.00,60.00,Sunday
281,20.000000000000204
282,-11.822009957058193
283,1.4804896880808907
2,7, 1, 7, 0, 5, 0.00,60.00,Sunday
281,20.00000000000006
282,-11.99450913383821
283,0.9500494400240548
2,7, 1, 7, 0, 6, 0.00,60.00,Sunday
281,20.00000000000014
282,-12.738291788117865
283,0.881425165042815
2,7, 1, 7, 0, 7, 0.00,60.00,Sunday
281,20.00000000000016
282,-12.776957904031639
283,0.67850202917902
2,7, 1, 7, 0, 8, 0.00,60.00,Sunday
281,20.000000000000015
282,-3.5693489068348356
283,2.1035805754217895
2,7, 1, 7, 0, 9, 0.00,60.00,Sunday
281,20.00000000000016
282,-1.1524276550615585
283,2.655004254789791
2,7, 1, 7, 0,10, 0.00,60.00,Sunday
281,19.999999999999923
282,0.22039502902335585
283,3.0282729429533705
2,7, 1, 7, 0,11, 0.00,60.00,Sunday
281,20.00000000000013
282,2.1613497169061319
283,3.4838901882160648
2,7, 1, 7, 0,12, 0.00,60.00,Sunday
281,20.00000000000013
282,4.56408324140422
283,4.085375491885549
2,7, 1, 7, 0,13, 0.00,60.00,Sunday
281,20.000000000000047
282,5.402684012200324
283,4.450306262833309
2,7, 1, 7, 0,14, 0.00,60.00,Sunday
281,20.000000000000033
282,5.0138830775092269
283,4.515069227490827
2,7, 1, 7, 0,15, 0.00,60.00,Sunday
281,20.000000000000119
282,4.991306584558266
283,4.667805255545931
2,7, 1, 7, 0,16, 0.00,60.00,Sunday
281,20.00000000000004
282,4.450113378434428
283,4.684137633986058
2,7, 1, 7, 0,17, 0.00,60.00,Sunday
281,20.000000000000147
282,4.943040217954638
283,4.905748765297614
2,7, 1, 7, 0,18, 0.00,60.00,Sunday
281,20.00000000000002
282,5.5150420707761029
283,5.157997429037878
2,7, 1, 7, 0,19, 0.00,60.00,Sunday
281,20.0
282,4.932785255445151
283,5.122356025970909
2,7, 1, 7, 0,20, 0.00,60.00,Sunday
281,19.999999999999998
282,4.349520474016705
283,5.043472472135526
2,7, 1, 7, 0,21, 0.00,60.00,Sunday
281,20.00000000000011
282,2.235374245843197
283,4.602962994706917
2,7, 1, 7, 0,22, 0.00,60.00,Sunday
281,20.000000000000005
282,-0.424483920329605
283,4.012198629777573
2,7, 1, 7, 0,23, 0.00,60.00,Sunday
281,20.000000000000136
282,-0.019671715429736015
283,4.04912464586772
2,7, 1, 7, 0,24, 0.00,60.00,Sunday
281,20.000000000000126
282,1.5474998615695368
283,4.3390361250654518
2,8, 1, 8, 0, 1, 0.00,60.00,Monday
281,20.000000000000136
282,1.6082154112191903
283,4.337485375921338
2,8, 1, 8, 0, 2, 0.00,60.00,Monday
281,20.00000000000004
282,1.053235173542782
283,4.19669933510007
2,8, 1, 8, 0, 3, 0.00,60.00,Monday
281,20.000000000000037
282,-0.5623077142116049
283,3.8371681070732599
2,8, 1, 8, 0, 4, 0.00,60.00,Monday
281,20.00000000000006
282,-1.6873009817117433
283,3.5593368104853488
2,8, 1, 8, 0, 5, 0.00,60.00,Monday
281,20.000000000000008
282,-3.2540741394762504
283,3.172517370657332
2,8, 1, 8, 0, 6, 0.00,60.00,Monday
281,20.00000000000005
282,-3.2831918121656327
283,3.051588650897103
2,8, 1, 8, 0, 7, 0.00,60.00,Monday
281,19.999999999999856
282,-4.364476051748042
283,2.7477932400276505
2,8, 1, 8, 0, 8, 0.00,60.00,Monday
281,19.99999999999999
282,-2.90589015703723
283,2.90443969991837
2,8, 1, 8, 0, 9, 0.00,60.00,Monday
281,20.00000000000008
282,1.9620919887671833
283,3.7788970986224208
2,8, 1, 8, 0,10, 0.00,60.00,Monday
281,20.00000000000001
282,4.63748063935706
283,4.553723573487462
2,8, 1, 8, 0,11, 0.00,60.00,Monday
281,20.000000000000055
282,6.956952398155611
283,5.350926211614889
2,8, 1, 8, 0,12, 0.00,60.00,Monday
281,20.000000000000005
282,7.663535179836686
283,5.961309071945131
2,8, 1, 8, 0,13, 0.00,60.00,Monday
281,20.000000000000008
282,10.42572134369085
283,6.989151908501697
2,8, 1, 8, 0,14, 0.00,60.00,Monday
281,20.09228144429956
282,10.467105844972617
283,7.327864122770685
2,8, 1, 8, 0,15, 0.00,60.00,Monday
281,20.18451381788908
282,7.83171814723475
283,7.057005041821962
2,8, 1, 8, 0,16, 0.00,60.00,Monday
281,20.269537965246916
282,6.727188452306771
283,6.887149327506067
2,8, 1, 8, 0,17, 0.00,60.00,Monday
281,20.00234764224902
282,4.50061072358159
283,6.46487268083274
2,8, 1, 8, 0,18, 0.00,60.00,Monday
281,20.000080853913567
282,0.855760228305227
283,5.441950936138871
2,8, 1, 8, 0,19, 0.00,60.00,Monday
281,20.000004067046097
282,-0.4878331900563366
283,5.1796959180538029
2,8, 1, 8, 0,20, 0.00,60.00,Monday
281,20.00000023206843
282,-1.6315157713429694
283,4.832278976849823
2,8, 1, 8, 0,21, 0.00,60.00,Monday
281,20.00000001239561
282,-1.1183729177318543
283,4.753398431588982
2,8, 1, 8, 0,22, 0.00,60.00,Monday
281,20.0000000007399
282,-2.181732934671682
283,4.395524259986807
2,8, 1, 8, 0,23, 0.00,60.00,Monday
281,20.000000000044485
282,-1.7503444176086594
283,4.314786637195631
2,8, 1, 8, 0,24, 0.00,60.00,Monday
281,20.000000000002879
282,-2.7970110701619879
283,3.975601534067086
2,9, 1, 9, 0, 1, 0.00,60.00,Tuesday
281,20.000000000000516
282,-3.3072303643035165
283,3.7213922869054194
2,9, 1, 9, 0, 2, 0.00,60.00,Tuesday
281,19.99999999999998
282,-3.333852246657698
283,3.5745517901570236
2,9, 1, 9, 0, 3, 0.00,60.00,Tuesday
281,20.000000000000175
282,-3.349823559432107
283,3.4455423704307637
2,9, 1, 9, 0, 4, 0.00,60.00,Tuesday
281,20.000000000000207
282,-3.3585058707209844
283,3.323774767204075
2,9, 1, 9, 0, 5, 0.00,60.00,Tuesday
281,19.999999999999866
282,-3.940993766405502
283,3.0945581619810724
2,9, 1, 9, 0, 6, 0.00,60.00,Tuesday
281,20.00000000000016
282,-3.391807317464994
283,3.0730408382351248
2,9, 1, 9, 0, 7, 0.00,60.00,Tuesday
281,20.00000000000008
282,-5.279127325233808
283,2.6659914796947326
2,9, 1, 9, 0, 8, 0.00,60.00,Tuesday
281,20.000000000000143
282,-1.6719881291935189
283,3.2071744915853168
2,9, 1, 9, 0, 9, 0.00,60.00,Tuesday
281,20.000000000000119
282,0.048302676923139348
283,3.573889443086256
2,9, 1, 9, 0,10, 0.00,60.00,Tuesday
281,19.999999999999948
282,2.435704366553888
283,4.076740470798147
2,9, 1, 9, 0,11, 0.00,60.00,Tuesday
281,20.00000000000005
282,3.652758980813939
283,4.5105978270812498
2,9, 1, 9, 0,12, 0.00,60.00,Tuesday
281,19.99999999999998
282,3.21172799014076
283,4.598574256799346
2,9, 1, 9, 0,13, 0.00,60.00,Tuesday
281,20.00000000000005
282,3.2506990909313697
283,4.7438946302849029
2,9, 1, 9, 0,14, 0.00,60.00,Tuesday
281,19.99999999999999
282,3.8446484091057657
283,5.062933181780782
2,9, 1, 9, 0,15, 0.00,60.00,Tuesday
281,20.00000000000001
282,4.328000157540082
283,5.407514510806523
2,9, 1, 9, 0,16, 0.00,60.00,Tuesday
281,20.000000000000026
282,3.8503296156481787
283,5.501653415157809
2,9, 1, 9, 0,17, 0.00,60.00,Tuesday
281,20.000000000000033
282,2.7777952145200568
283,5.337821167539899
2,9, 1, 9, 0,18, 0.00,60.00,Tuesday
281,20.0
282,1.1351820832914397
283,4.961238565117345
2,9, 1, 9, 0,19, 0.00,60.00,Tuesday
281,20.0
282,0.023803357029562233
283,4.69572387307302
2,9, 1, 9, 0,20, 0.00,60.00,Tuesday
281,20.0
282,0.5227000699998908
283,4.723369927919889
2,9, 1, 9, 0,21, 0.00,60.00,Tuesday
281,20.00000000000012
282,-1.6790409880049089
283,4.175142471321656
2,9, 1, 9, 0,22, 0.00,60.00,Tuesday
281,19.999999999999955
282,-1.720464970619645
283,4.028706453909113
2,9, 1, 9, 0,23, 0.00,60.00,Tuesday
281,20.000000000000207
282,-2.7928221174045708
283,3.703285509409637
2,9, 1, 9, 0,24, 0.00,60.00,Tuesday
281,20.00000000000008
282,-4.357621939370913
283,3.249832415498956
2,10, 1,10, 0, 1, 0.00,60.00,Wednesday
281,19.999999999999849
282,-4.40620246386457
283,3.0826061714011576
2,10, 1,10, 0, 2, 0.00,60.00,Wednesday
281,20.000000000000179
282,-5.010491731381792
283,2.8269913308787135
2,10, 1,10, 0, 3, 0.00,60.00,Wednesday
281,20.000000000000019
282,-5.050274505793934
283,2.6769502619098035
2,10, 1,10, 0, 4, 0.00,60.00,Wednesday
281,20.000000000000005
282,-5.629364153965153
283,2.4321700959177265
2,10, 1,10, 0, 5, 0.00,60.00,Wednesday
281,19.999999999999817
282,-6.123712472326553
283,2.1922106779012018
2,10, 1,10, 0, 6, 0.00,60.00,Wednesday
281,19.999999999999774
282,-6.715187446611725
283,1.9365327675541766
2,10, 1,10, 0, 7, 0.00,60.00,Wednesday
281,19.999999999999888
282,-5.742130626676326
283,1.9743690202645339
2,10, 1,10, 0, 8, 0.00,60.00,Wednesday
281,19.999999999999888
282,-5.118930673084415
283,1.9798465103878567
2,10, 1,10, 0, 9, 0.00,60.00,Wednesday
281,20.000000000000055
282,-1.9285187704147864
283,2.499496427324661
2,10, 1,10, 0,10, 0.00,60.00,Wednesday
281,20.000000000000069
282,1.3626587052946935
283,3.2310706863537095
2,10, 1,10, 0,11, 0.00,60.00,Wednesday
281,20.000000000000094
282,4.046360648538906
283,4.01483129636146
2,10, 1,10, 0,12, 0.00,60.00,Wednesday
281,19.999999999999984
282,5.718591953480396
283,4.775971873320084
2,10, 1,10, 0,13, 0.00,60.00,Wednesday
281,19.999999999999994
282,6.530666675867843
283,5.659785113735176
2,10, 1,10, 0,14, 0.00,60.00,Wednesday
281,20.000000000000019
282,6.847343215816377
283,5.940366109586268
2,10, 1,10, 0,15, 0.00,60.00,Wednesday
281,20.000000000000005
282,5.117098742804578
283,6.080901226787388
2,10, 1,10, 0,16, 0.00,60.00,Wednesday
281,20.008572677907599
282,5.875101214238427
283,6.166803967074722
2,10, 1,10, 0,17, 0.00,60.00,Wednesday
281,20.00014307310617
282,3.3692396101907158
283,5.616211277260179
2,10, 1,10, 0,18, 0.00,60.00,Wednesday
281,20.000005464169278
282,0.7639438209992004
283,4.893670539479763
2,10, 1,10, 0,19, 0.00,60.00,Wednesday
281,20.000000290320924
282,-0.9858695417222136
283,4.535821301669131
2,10, 1,10, 0,20, 0.00,60.00,Wednesday
281,20.000000015331847
282,-2.123224660549393
283,4.194444570196563
2,10, 1,10, 0,21, 0.00,60.00,Wednesday
281,20.00000000083595
282,-1.2211161139425893
283,4.232665855557781
2,10, 1,10, 0,22, 0.00,60.00,Wednesday
281,20.00000000005356
282,-3.301201348332885
283,3.6792513151775254
2,10, 1,10, 0,23, 0.00,60.00,Wednesday
281,20.000000000003863
282,-4.353385215790919
283,3.282241882510582
2,10, 1,10, 0,24, 0.00,60.00,Wednesday
281,20.000000000000449
282,-5.0030708276597759
283,3.000750530116594
2,11, 1,11, 0, 1, 0.00,60.00,Thursday
281,20.00000000000016
282,-5.600625023278604
283,2.7019628507327915
2,11, 1,11, 0, 2, 0.00,60.00,Thursday
281,20.000000000000079
282,-6.1092373162094228
283,2.423296725997757
2,11, 1,11, 0, 3, 0.00,60.00,Thursday
281,20.000000000000186
282,-6.145711730272239
283,2.2532659214682697
2,11, 1,11, 0, 4, 0.00,60.00,Thursday
281,20.000000000000147
282,-5.6783967200781559
283,2.1954410680610856
2,11, 1,11, 0, 5, 0.00,60.00,Thursday
281,20.00000000000041
282,-5.09265567344303
283,2.163653243616122
2,11, 1,11, 0, 6, 0.00,60.00,Thursday
281,19.999999999999959
282,-4.026244471463531
283,2.247647191497105
2,11, 1,11, 0, 7, 0.00,60.00,Thursday
281,20.000000000000168
282,-4.0054671651886049
283,2.1655021124057818
2,11, 1,11, 0, 8, 0.00,60.00,Thursday
281,20.000000000000175
282,-3.4090630013680975
283,2.1857958858699866
2,11, 1,11, 0, 9, 0.00,60.00,Thursday
281,20.00000000000031
282,-1.8246777137104014
283,2.431985269607522
2,11, 1,11, 0,10, 0.00,60.00,Thursday
281,20.00000000000017
282,0.8444544052774979
283,2.9963628900777357
2,11, 1,11, 0,11, 0.00,60.00,Thursday
281,20.00000000000004
282,6.421124651595127
283,4.378124146690783
2,11, 1,11, 0,12, 0.00,60.00,Thursday
281,20.000000000000055
282,7.1961121227601849
283,5.23157967424045
2,11, 1,11, 0,13, 0.00,60.00,Thursday
281,20.0
282,10.340035868139024
283,6.182732498028237
2,11, 1,11, 0,14, 0.00,60.00,Thursday
281,20.00000000000001
282,11.555183638669402
283,6.808719856302021
2,11, 1,11, 0,15, 0.00,60.00,Thursday
281,20.00000000000001
282,12.098503258266554
283,7.297384604515388
2,11, 1,11, 0,16, 0.00,60.00,Thursday
281,20.0
282,10.041616701700497
283,7.208314952261616
2,11, 1,11, 0,17, 0.00,60.00,Thursday
281,20.00000000000005
282,8.346199946263681
283,7.005942661494487
2,11, 1,11, 0,18, 0.00,60.00,Thursday
281,20.000000000000058
282,7.799289231357622
283,6.960782036363101
2,11, 1,11, 0,19, 0.00,60.00,Thursday
281,19.999999999999984
282,7.168375020697952
283,6.829559608374294
2,11, 1,11, 0,20, 0.00,60.00,Thursday
281,20.00000000000006
282,5.614913373199991
283,6.386497416047223
2,11, 1,11, 0,21, 0.00,60.00,Thursday
281,20.000000000000076
282,4.422956539410963
283,5.989500009064204
2,11, 1,11, 0,22, 0.00,60.00,Thursday
281,20.00000000000007
282,5.9716292357722
283,6.366900129225024
2,11, 1,11, 0,23, 0.00,60.00,Thursday
281,19.999999999999998
282,4.405708928199131
283,5.925696538902058
2,11, 1,11, 0,24, 0.00,60.00,Thursday
281,20.00000000000012
282,3.8841624173427995
283,5.645682911025209
2,12, 1,12, 0, 1, 0.00,60.00,Friday
281,20.00000000000011