Program Version,EnergyPlus, Version 9.2.0-921312fa1d, YMD=2019.11.06 07:58
1,5,Environment Title[],Latitude[deg],Longitude[deg],Time Zone[],Elevation[m]
2,8,Day of Simulation[],Month[],Day of Month[],DST Indicator[1=yes 0=no],Hour[],StartMinute[],EndMinute[],DayType
3,5,Cumulative Day of Simulation[],Month[],Day of Month[],DST Indicator[1=yes 0=no],DayType  ! When Daily Report Variables Requested
4,2,Cumulative Days of Simulation[],Month[]  ! When Monthly Report Variables Requested
5,1,Cumulative Days of Simulation[] ! When Run Period Report Variables Requested
6,1,Calendar Year of Simulation[] ! When Annual Report Variables Requested
276,9,EMS,central ac supply fan cool disaggregate [J] !Monthly [Value,Min,Day,Hour,Minute,Max,Day,Hour,Minute]
277,11,EMS,central ac supply fan cool disaggregate [J] !RunPeriod [Value,Min,Month,Day,Hour,Minute,Max,Month,Day,Hour,Minute]
278,11,EMS,furnace supply fan heat disaggregate [J] !RunPeriod [Value,Min,Month,Day,Hour,Minute,Max,Month,Day,Hour,Minute]
279,9,EMS,furnace supply fan heat disaggregate [J] !Monthly [Value,Min,Day,Hour,Minute,Max,Day,Hour,Minute]
280,11,EMS,water heater EC adjustment [J] !RunPeriod [Value,Min,Month,Day,Hour,Minute,Max,Month,Day,Hour,Minute]
281,1,LIVING,Zone Mean Air Temperature [C] !Hourly
282,1,VENTED ATTIC,Zone Mean Air Temperature [C] !Hourly
283,1,VENTED CRAWLSPACE,Zone Mean Air Temperature [C] !Hourly
585,11,CENTRAL AC CLG COIL,Cooling Coil Electric Energy [J] !RunPeriod [Value,Min,Month,Day,Hour,Minute,Max,Month,Day,Hour,Minute]
611,11,FURNACE HTG COIL,Heating Coil Gas Energy [J] !RunPeriod [Value,Min,Month,Day,Hour,Minute,Max,Month,Day,Hour,Minute]
876,11,WATER USE CONNECTIONS 1,Water Use Connections Plant Hot Water Energy [J] !RunPeriod [Value,Min,Month,Day,Hour,Minute,Max,Month,Day,Hour,Minute]
913,11,WATER HEATER,Water Heater Heat Loss Energy [J] !RunPeriod [Value,Min,Month,Day,Hour,Minute,Max,Month,Day,Hour,Minute]
928,11,WATER HEATER,Water Heater Electric Energy [J] !RunPeriod [Value,Min,Month,Day,Hour,Minute,Max,Month,Day,Hour,Minute]
966,11,WATER HEATER,Water Heater Off Cycle Parasitic Electric Energy [J] !RunPeriod [Value,Min,Month,Day,Hour,Minute,Max,Month,Day,Hour,Minute]
968,11,WATER HEATER,Water Heater On Cycle Parasitic Electric Energy [J] !RunPeriod [Value,Min,Month,Day,Hour,Minute,Max,Month,Day,Hour,Minute]
1131,11,CENTRAL AC CLG COIL,Cooling Coil Crankcase Heater Electric Energy [J] !RunPeriod [Value,Min,Month,Day,Hour,Minute,Max,Month,Day,Hour,Minute]
End of Data Dictionary
1,RUN PERIOD 1,  39.83,-104.65,  -7.00,1650.00
2,1, 1, 1, 0, 1, 0.00,60.00,Monday
281,20.000000000000015
282,-13.196494329231557
283,10.83919831237317
2,1, 1, 1, 0, 2, 0.00,60.00,Monday
281,20.000000000000165
282,-13.704005966323879
283,9.803815471602796
2,1, 1, 1, 0, 3, 0.00,60.00,Monday
281,20.000000000000236
282,-13.877570403964528
283,9.116508156026179
2,1, 1, 1, 0, 4, 0.00,60.00,Monday
281,20.000000000000239
282,-15.066201543547509
283,8.520214446632155
2,1, 1, 1, 0, 5, 0.00,60.00,Monday
281,20.00000000000003
282,-15.100777199601927
283,8.102031304708559
2,1, 1, 1, 0, 6, 0.00,60.00,Monday
281,20.000000000000175
282,-14.228020488968058
283,7.8929832099800258
2,1, 1, 1, 0, 7, 0.00,60.00,Monday
281,20.000000000000399
282,-13.199990020485169
283,7.694401602572485
2,1, 1, 1, 0, 8, 0.00,60.00,Monday
281,20.000000000000214
282,-8.901754587023426
283,7.665470809398183
2,1, 1, 1, 0, 9, 0.00,60.00,Monday
281,20.000000000000186
282,-6.907470855821146
283,7.735902242020403
2,1, 1, 1, 0,10, 0.00,60.00,Monday
281,19.999999999999959
282,-2.81177520937986
283,8.318469077655099
2,1, 1, 1, 0,11, 0.00,60.00,Monday
281,19.999999999999998
282,1.140256848853642
283,9.053681578003318
2,1, 1, 1, 0,12, 0.00,60.00,Monday
281,20.00000000000003
282,2.9352622986675529
283,9.48994751520796
2,1, 1, 1, 0,13, 0.00,60.00,Monday
281,19.999999999999916
282,4.495759071409554
283,9.906044088415037
2,1, 1, 1, 0,14, 0.00,60.00,Monday
281,20.000000000000047
282,3.4584877594548786
283,9.842797512677949
2,1, 1, 1, 0,15, 0.00,60.00,Monday
281,20.000000000000019
282,4.019183535080383
283,9.985254420893974
2,1, 1, 1, 0,16, 0.00,60.00,Monday
281,20.0
282,2.4110247986042077
283,9.695463284001628
2,1, 1, 1, 0,17, 0.00,60.00,Monday
281,19.999999999999998
282,-0.1705018320794089
283,9.073768606623505
2,1, 1, 1, 0,18, 0.00,60.00,Monday
281,19.99999999999988
282,-2.0338899049323375
283,8.574641045067893
2,1, 1, 1, 0,19, 0.00,60.00,Monday
281,19.999999999999998
282,-4.806180959829171
283,7.834236770261836
2,1, 1, 1, 0,20, 0.00,60.00,Monday
281,19.99999999999988
282,-5.510904621190029
283,7.424203253659244
2,1, 1, 1, 0,21, 0.00,60.00,Monday
281,19.999999999999895
282,-5.986507041465571
283,7.0594304327969878
2,1, 1, 1, 0,22, 0.00,60.00,Monday
281,20.000000000000104
282,-6.137403010159741
283,6.773733030746881
2,1, 1, 1, 0,23, 0.00,60.00,Monday
281,20.000000000000058
282,-6.172120090789491
283,6.504842045501299
2,1, 1, 1, 0,24, 0.00,60.00,Monday
281,20.00000000000016
282,-5.082185582564117
283,6.43809993420273
2,2, 1, 2, 0, 1, 0.00,60.00,Tuesday
281,19.99999999999995
282,-5.057088032351262
283,6.233170280347367
2,2, 1, 2, 0, 2, 0.00,60.00,Tuesday
281,19.999999999999998
282,-5.640197495004731
283,5.931537742963387
2,2, 1, 2, 0, 3, 0.00,60.00,Tuesday
281,19.99999999999993
282,-5.066073516351051
283,5.831058060306518
2,2, 1, 2, 0, 4, 0.00,60.00,Tuesday
281,19.99999999999993
282,-6.707835316006415
283,5.375068666644024
2,2, 1, 2, 0, 5, 0.00,60.00,Tuesday
281,19.999999999999994
282,-5.707594511357233
283,5.334777069008198
2,2, 1, 2, 0, 6, 0.00,60.00,Tuesday
281,19.999999999999859
282,-6.189863944569761
283,5.113043830538301
2,2, 1, 2, 0, 7, 0.00,60.00,Tuesday
281,20.000000000000168
282,-4.654930134305027
283,5.224340999940303
2,2, 1, 2, 0, 8, 0.00,60.00,Tuesday
281,19.999999999999987
282,-3.4182079644601717
283,5.422395672044223
2,2, 1, 2, 0, 9, 0.00,60.00,Tuesday
281,19.999999999999895
282,-2.08076161634636
283,5.6257409787216
2,2, 1, 2, 0,10, 0.00,60.00,Tuesday
281,20.000000000000097
282,1.782310952825832
283,6.447184038432465
2,2, 1, 2, 0,11, 0.00,60.00,Tuesday
281,20.00000000000009
282,5.4255479461259299
283,7.436800712094418
2,2, 1, 2, 0,12, 0.00,60.00,Tuesday
281,20.000000000000058
282,8.97218250981239
283,8.479185208268064
2,2, 1, 2, 0,13, 0.00,60.00,Tuesday
281,20.00000000000004
282,9.722363685813472
283,9.082554087044932
2,2, 1, 2, 0,14, 0.00,60.00,Tuesday
281,19.999999999999998
282,9.898691962941229
283,9.33183138039157
2,2, 1, 2, 0,15, 0.00,60.00,Tuesday
281,20.000000000000008
282,10.397005997023115
283,9.727681974084968
2,2, 1, 2, 0,16, 0.00,60.00,Tuesday
281,20.00000000000002
282,8.354715788489602
283,9.338273121376643
2,2, 1, 2, 0,17, 0.00,60.00,Tuesday
281,20.00000000000002
282,7.1514642850687839
283,9.111479516659602
2,2, 1, 2, 0,18, 0.00,60.00,Tuesday
281,20.00000000000004
282,5.242811694896498
283,8.69947579853959
2,2, 1, 2, 0,19, 0.00,60.00,Tuesday
281,20.000000000000005
282,1.4517625961456829
283,7.781518792586339
2,2, 1, 2, 0,20, 0.00,60.00,Tuesday
281,19.999999999999934
282,0.18607679618910637
283,7.419067069931352
2,2, 1, 2, 0,21, 0.00,60.00,Tuesday
281,20.000000000000104
282,-1.5552829741949828
283,6.929782338765912
2,2, 1, 2, 0,22, 0.00,60.00,Tuesday
281,20.00000000000003
282,-1.136338167295033
283,6.818319461630558
2,2, 1, 2, 0,23, 0.00,60.00,Tuesday
281,20.000000000000065
282,-1.4392603934819726
283,6.954844224403343
2,2, 1, 2, 0,24, 0.00,60.00,Tuesday
281,19.999999999999959
282,-0.3185881695006817
283,6.7336649319843648
2,3, 1, 3, 0, 1, 0.00,60.00,Wednesday
281,20.00000000000005
282,-0.7505266416078559
283,6.484464255351002
2,3, 1, 3, 0, 2, 0.00,60.00,Wednesday
281,20.0000000000001
282,-0.708770059723175
283,6.344961438980992
2,3, 1, 3, 0, 3, 0.00,60.00,Wednesday
281,20.000000000000143
282,-1.1725794002898103
283,6.1217890811220789
2,3, 1, 3, 0, 4, 0.00,60.00,Wednesday
281,20.00000000000001
282,-1.7535895373419004
283,5.86869207805424
2,3, 1, 3, 0, 5, 0.00,60.00,Wednesday
281,19.999999999999969
282,-1.7613244264522426
283,5.715904290269518
2,3, 1, 3, 0, 6, 0.00,60.00,Wednesday
281,20.000000000000037
282,-1.175993441608472
283,5.693751497865721
2,3, 1, 3, 0, 7, 0.00,60.00,Wednesday
281,20.00000000000003
282,-1.1732619120093067
283,5.594237094833019
2,3, 1, 3, 0, 8, 0.00,60.00,Wednesday
281,20.000000000000136
282,-0.6751397616228103
283,5.596000614517387
2,3, 1, 3, 0, 9, 0.00,60.00,Wednesday
281,20.000000000000136
282,3.0621787894425567
283,6.291385016782013
2,3, 1, 3, 0,10, 0.00,60.00,Wednesday
281,20.000000000000005
282,5.412877451830618
283,6.956037294990512
2,3, 1, 3, 0,11, 0.00,60.00,Wednesday
281,20.000000000000076
282,6.299620575090663
283,7.384005697031101
2,3, 1, 3, 0,12, 0.00,60.00,Wednesday
281,20.00000000000005
282,6.784147836580182
283,7.784651328681279
2,3, 1, 3, 0,13, 0.00,60.00,Wednesday
281,19.99999999999999
282,5.75866109683914
283,7.768001506604713
2,3, 1, 3, 0,14, 0.00,60.00,Wednesday
281,19.99999999999996
282,4.746874841705147
283,7.680365916438637
2,3, 1, 3, 0,15, 0.00,60.00,Wednesday
281,20.000000000000037
282,2.580755897352591
283,7.258845714053549
2,3, 1, 3, 0,16, 0.00,60.00,Wednesday
281,20.00000000000008
282,0.01737786147006132
283,6.657594180663414
2,3, 1, 3, 0,17, 0.00,60.00,Wednesday
281,19.99999999999996
282,-2.594803349952792
283,5.953808073744968
2,3, 1, 3, 0,18, 0.00,60.00,Wednesday
281,19.999999999999905
282,-5.23652230671541
283,5.2118321003483729
2,3, 1, 3, 0,19, 0.00,60.00,Wednesday
281,19.999999999999944
282,-5.308179340663784
283,5.011990588783614
2,3, 1, 3, 0,20, 0.00,60.00,Wednesday
281,20.000000000000126
282,-6.310422094561283
283,4.510537970917094
2,3, 1, 3, 0,21, 0.00,60.00,Wednesday
281,20.00000000000002
282,-8.2403428064673
283,3.976346989293408
2,3, 1, 3, 0,22, 0.00,60.00,Wednesday
281,20.000000000000079
282,-9.64771780188882
283,3.511882031404332
2,3, 1, 3, 0,23, 0.00,60.00,Wednesday
281,19.999999999999966
282,-11.10061825913529
283,2.9656214357867789
2,3, 1, 3, 0,24, 0.00,60.00,Wednesday
281,20.000000000000193
282,-12.175429388717382
283,2.510732083194047
2,4, 1, 4, 0, 1, 0.00,60.00,Thursday
281,19.999999999999948
282,-12.469407142540927
283,2.0392968327167657
2,4, 1, 4, 0, 2, 0.00,60.00,Thursday
281,20.000000000000165
282,-14.06683079545638
283,1.290698796448522
2,4, 1, 4, 0, 3, 0.00,60.00,Thursday
281,20.00000000000047
282,-15.854494598308344
283,0.943395991210875
2,4, 1, 4, 0, 4, 0.00,60.00,Thursday
281,20.00000000000034
282,-14.765437200468382
283,0.8741105305023499
2,4, 1, 4, 0, 5, 0.00,60.00,Thursday
281,20.000000000000264
282,-14.416470571542451
283,0.6984704030480757
2,4, 1, 4, 0, 6, 0.00,60.00,Thursday
281,20.000000000000165
282,-13.696375081413347
283,0.6288679684635883
2,4, 1, 4, 0, 7, 0.00,60.00,Thursday
281,20.00000000000015
282,-14.461534629235454
283,0.7021824799588943
2,4, 1, 4, 0, 8, 0.00,60.00,Thursday
281,19.999999999999866
282,-12.851288034941595
283,1.0728086938971056
2,4, 1, 4, 0, 9, 0.00,60.00,Thursday
281,19.999999999999994
282,-9.999783985131194
283,1.6325169382697505
2,4, 1, 4, 0,10, 0.00,60.00,Thursday
281,19.99999999999992
282,-2.129526395194591
283,2.694754582178753
2,4, 1, 4, 0,11, 0.00,60.00,Thursday
281,19.99999999999994
282,2.261026224115657
283,3.7220108899162409
2,4, 1, 4, 0,12, 0.00,60.00,Thursday
281,19.999999999999987
282,2.813262373336962
283,4.20305666324899
2,4, 1, 4, 0,13, 0.00,60.00,Thursday
281,20.000000000000005
282,7.764302229294041
283,5.365826729821367
2,4, 1, 4, 0,14, 0.00,60.00,Thursday
281,19.999999999999998
282,9.455723443023223
283,6.265777705116758
2,4, 1, 4, 0,15, 0.00,60.00,Thursday
281,20.000000000000076
282,10.939622399718627
283,7.090945337073967
2,4, 1, 4, 0,16, 0.00,60.00,Thursday
281,20.000000000000165
282,9.980255545124712
283,7.214978751460028
2,4, 1, 4, 0,17, 0.00,60.00,Thursday
281,19.99999999999999
282,8.09412156712576
283,6.791958438588656
2,4, 1, 4, 0,18, 0.00,60.00,Thursday
281,20.000000000000026
282,7.20892422387423
283,6.705955553899767
2,4, 1, 4, 0,19, 0.00,60.00,Thursday
281,20.00000000000001
282,6.111750363564581
283,6.509057074345819
2,4, 1, 4, 0,20, 0.00,60.00,Thursday
281,20.00000000000001
282,7.020837759767721
283,6.787473407374567
2,4, 1, 4, 0,21, 0.00,60.00,Thursday
281,20.000000000000147
282,6.0403568290838038
283,6.605257820612435
2,4, 1, 4, 0,22, 0.00,60.00,Thursday
281,20.000000000000108
282,5.508805428216442
283,6.476005233778398
2,4, 1, 4, 0,23, 0.00,60.00,Thursday
281,20.000000000000015
282,4.912701615885787
283,6.343798292598333
2,4, 1, 4, 0,24, 0.00,60.00,Thursday
281,20.00000000000007
282,9.777570526953868
283,7.48281104994381
2,5, 1, 5, 0, 1, 0.00,60.00,Friday
281,20.000000000000058
282,5.146582789050864
283,6.636050408008582
2,5, 1, 5, 0, 2, 0.00,60.00,Friday
281,20.000000000000015
282,10.300883522628903
283,7.694498693590712
2,5, 1, 5, 0, 3, 0.00,60.00,Friday
281,20.0000000000001
282,10.905442237357497
283,8.306570451612302
2,5, 1, 5, 0, 4, 0.00,60.00,Friday
281,20.000000000000087
282,9.319192347394243
283,8.05857695274821
2,5, 1, 5, 0, 5, 0.00,60.00,Friday
281,20.0
282,9.2574159703022
283,8.03652962579177
2,5, 1, 5, 0, 6, 0.00,60.00,Friday
281,19.99999999999999
282,9.266463629327783
283,8.127542308284939
2,5, 1, 5, 0, 7, 0.00,60.00,Friday
281,20.0
282,5.113472813527518
283,6.807580341365819
2,5, 1, 5, 0, 8, 0.00,60.00,Friday
281,19.999999999999955
282,9.115729236365058
283,7.924669186411457
2,5, 1, 5, 0, 9, 0.00,60.00,Friday
281,20.000000000000008
282,8.860875860687612
283,8.336563259749955
2,5, 1, 5, 0,10, 0.00,60.00,Friday
281,20.084708949791457
282,12.65736286803987
283,9.538288388402979
2,5, 1, 5, 0,11, 0.00,60.00,Friday
281,20.09533291500563
282,12.87712111959885
283,9.867913057982568
2,5, 1, 5, 0,12, 0.00,60.00,Friday
281,20.74805071972611
282,15.113343087617475
283,10.658115584015093
2,5, 1, 5, 0,13, 0.00,60.00,Friday
281,21.14350878711834
282,14.808873134781113
283,10.996620898982357
2,5, 1, 5, 0,14, 0.00,60.00,Friday
281,21.318841953366336
282,13.636038801042686
283,11.05341417197243
2,5, 1, 5, 0,15, 0.00,60.00,Friday
281,21.286263580884154
282,11.206021034271123
283,10.689406990761679
2,5, 1, 5, 0,16, 0.00,60.00,Friday
281,21.236312544944565
282,9.535388282918588
283,10.209479193799629
2,5, 1, 5, 0,17, 0.00,60.00,Friday
281,20.82879157271183
282,6.520321434223781
283,9.29078677922797
2,5, 1, 5, 0,18, 0.00,60.00,Friday
281,20.58340515513217
282,5.961481804145563
283,8.89539254335864
2,5, 1, 5, 0,19, 0.00,60.00,Friday
281,20.341989438138236
282,4.081761581210138
283,8.213247996253685
2,5, 1, 5, 0,20, 0.00,60.00,Friday
281,20.082836480890515
282,3.3687619068746978
283,7.822729897740033
2,5, 1, 5, 0,21, 0.00,60.00,Friday
281,20.000941857769527
282,1.7786221848302542
283,7.275892614282424
2,5, 1, 5, 0,22, 0.00,60.00,Friday
281,20.00002328124987
282,0.21443471881524635
283,6.7085720814853488
2,5, 1, 5, 0,23, 0.00,60.00,Friday
281,20.00000083786502
282,0.5554746643599148
283,6.591169143400064
2,5, 1, 5, 0,24, 0.00,60.00,Friday
281,20.00000004167031
282,-0.03994079064346057
283,6.311166517436214
2,6, 1, 6, 0, 1, 0.00,60.00,Saturday
281,20.00000000219705
282,-0.060122486342109007
283,6.1264394177182679
2,6, 1, 6, 0, 2, 0.00,60.00,Saturday
281,20.00000000011038
282,0.9698898952707813
283,6.178751579866004
2,6, 1, 6, 0, 3, 0.00,60.00,Saturday
281,20.000000000005817
282,0.5265178999078494
283,5.970563259886583
2,6, 1, 6, 0, 4, 0.00,60.00,Saturday
281,20.000000000000328
282,-0.041662409208452089
283,5.71974474860751
2,6, 1, 6, 0, 5, 0.00,60.00,Saturday
281,20.00000000000003
282,-0.6628488198738379
283,5.465461363733517
2,6, 1, 6, 0, 6, 0.00,60.00,Saturday
281,20.00000000000013
282,-0.16382558699247563
283,5.430748714117685
2,6, 1, 6, 0, 7, 0.00,60.00,Saturday
281,20.000000000000136
282,-0.6859268556830318
283,5.20672517270603
2,6, 1, 6, 0, 8, 0.00,60.00,Saturday
281,20.000000000000136
282,-0.6749164596349325
283,5.084092905811221
2,6, 1, 6, 0, 9, 0.00,60.00,Saturday
281,20.00000000000011
282,-0.6142326556860542
283,5.088660908928415
2,6, 1, 6, 0,10, 0.00,60.00,Saturday
281,20.000000000000005
282,0.0923449287093999
283,5.24262958964818
2,6, 1, 6, 0,11, 0.00,60.00,Saturday
281,20.000000000000108
282,0.8536770608571955
283,5.338602788977357
2,6, 1, 6, 0,12, 0.00,60.00,Saturday
281,20.0
282,1.6481139631733315
283,5.670710514892535
2,6, 1, 6, 0,13, 0.00,60.00,Saturday
281,20.00000000000005
282,1.9491504899223467
283,5.936664212012872
2,6, 1, 6, 0,14, 0.00,60.00,Saturday
281,20.000000000000065
282,1.4009333672176357
283,5.953460274813706
2,6, 1, 6, 0,15, 0.00,60.00,Saturday
281,20.000000000000033
282,1.8667744133704936
283,6.147121822841316
2,6, 1, 6, 0,16, 0.00,60.00,Saturday
281,20.000000000000005
282,0.7996045382011129
283,5.975502319309766
2,6, 1, 6, 0,17, 0.00,60.00,Saturday
281,20.0
282,-0.46538700217723708
283,5.598718527466886
2,6, 1, 6, 0,18, 0.00,60.00,Saturday
281,20.000000000000037
282,-1.5629411058807985
283,5.205606154676374
2,6, 1, 6, 0,19, 0.00,60.00,Saturday
281,19.99999999999998
282,-3.1549768164721354
283,4.714223245183082
2,6, 1, 6, 0,20, 0.00,60.00,Saturday
281,19.999999999999969
282,-4.325923510851012
283,4.314310514204155
2,6, 1, 6, 0,21, 0.00,60.00,Saturday
281,20.000000000000136
282,-5.775345401406114
283,3.818986419735719
2,6, 1, 6, 0,22, 0.00,60.00,Saturday
281,20.000000000000037
282,-7.587237288165165
283,3.288478655430549
2,6, 1, 6, 0,23, 0.00,60.00,Saturday
281,20.00000000000006
282,-7.701515163122022
283,3.039566832323345
2,6, 1, 6, 0,24, 0.00,60.00,Saturday
281,19.999999999999785
282,-8.788734109165353
283,2.625018915993805
2,7, 1, 7, 0, 1, 0.00,60.00,Sunday
281,19.99999999999981
282,-8.87591242040062
283,2.382437917320234
2,7, 1, 7, 0, 2, 0.00,60.00,Sunday
281,20.000000000000165
282,-8.329209938876911
283,2.2765407186538999
2,7, 1, 7, 0, 3, 0.00,60.00,Sunday
281,19.999999999999969
282,-10.480807426668953
283,1.6915954111067522
2,7, 1, 7, 0, 4, 0.00,60.00,Sunday
281,19.999999999999994
282,-11.841557744543183
283,1.1837464667558764
2,7, 1, 7, 0, 5, 0.00,60.00,Sunday
281,20.000000000000055
282,-12.085480714174933
283,0.6434503818940008
2,7, 1, 7, 0, 6, 0.00,60.00,Sunday
281,19.999999999999966
282,-12.75197441134536
283,0.5516600096273165
2,7, 1, 7, 0, 7, 0.00,60.00,Sunday
281,20.000000000000005
282,-12.78915367424607
283,0.336066076052664
2,7, 1, 7, 0, 8, 0.00,60.00,Sunday
281,20.000000000000094
282,-3.5331410007843506
283,1.7789379997847277
2,7, 1, 7, 0, 9, 0.00,60.00,Sunday
281,19.999999999999984
282,-1.1424310788749375
283,2.410908204623281
2,7, 1, 7, 0,10, 0.00,60.00,Sunday
281,20.000000000000147
282,0.23337792688941573
283,2.8792148009025828
2,7, 1, 7, 0,11, 0.00,60.00,Sunday
281,20.000000000000076
282,2.170252507026391
283,3.435982977398394
2,7, 1, 7, 0,12, 0.00,60.00,Sunday
281,20.000000000000008
282,4.570433433771662
283,4.142569041673669
2,7, 1, 7, 0,13, 0.00,60.00,Sunday
281,20.000000000000015
282,5.408385765932064
283,4.592898750145741
2,7, 1, 7, 0,14, 0.00,60.00,Sunday
281,20.000000000000069
282,5.017794257211613
283,4.695472179500992
2,7, 1, 7, 0,15, 0.00,60.00,Sunday
281,20.00000000000011
282,4.993830810737813
283,4.856617747267007
2,7, 1, 7, 0,16, 0.00,60.00,Sunday
281,20.000000000000119
282,4.451696514949854
283,4.852243193533103
2,7, 1, 7, 0,17, 0.00,60.00,Sunday
281,20.00000000000012
282,4.942158513368227
283,5.06071312493405
2,7, 1, 7, 0,18, 0.00,60.00,Sunday
281,20.000000000000097
282,5.517277150124057
283,5.3194004301232848
2,7, 1, 7, 0,19, 0.00,60.00,Sunday
281,20.000000000000008
282,4.936252412964243
283,5.261583265716794
2,7, 1, 7, 0,20, 0.00,60.00,Sunday
281,20.00000000000018
282,4.352685364981239
283,5.154422274473813
2,7, 1, 7, 0,21, 0.00,60.00,Sunday
281,20.000000000000047
282,2.2284690847625634
283,4.667267329268525
2,7, 1, 7, 0,22, 0.00,60.00,Sunday
281,19.999999999999966
282,-0.4325217844547606
283,4.037599280783168
2,7, 1, 7, 0,23, 0.00,60.00,Sunday
281,20.000000000000058
282,-0.022365457319675404
283,4.046874850963678
2,7, 1, 7, 0,24, 0.00,60.00,Sunday
281,20.000000000000236
282,1.5541687023963829
283,4.32846659274655
2,8, 1, 8, 0, 1, 0.00,60.00,Monday
281,20.000000000000015
282,1.6077938918418422
283,4.326057629981112
2,8, 1, 8, 0, 2, 0.00,60.00,Monday
281,20.000000000000154
282,1.0535294704279526
283,4.178556205198737
2,8, 1, 8, 0, 3, 0.00,60.00,Monday
281,20.00000000000007
282,-0.5762202791105898
283,3.7984670934160995
2,8, 1, 8, 0, 4, 0.00,60.00,Monday
281,20.00000000000008
282,-1.692695783271184
283,3.4988725961787705
2,8, 1, 8, 0, 5, 0.00,60.00,Monday
281,20.000000000000008
282,-3.2606539090905759
283,3.0869145716498584
2,8, 1, 8, 0, 6, 0.00,60.00,Monday
281,20.00000000000015
282,-3.292308066383552
283,2.944125166154398
2,8, 1, 8, 0, 7, 0.00,60.00,Monday
281,20.000000000000108
282,-4.376110447272848
283,2.6166662920118655
2,8, 1, 8, 0, 8, 0.00,60.00,Monday
281,19.999999999999898
282,-2.915583584771123
283,2.785641528715873
2,8, 1, 8, 0, 9, 0.00,60.00,Monday
281,20.0000000000001
282,2.0102693423308386
283,3.798977407859201
2,8, 1, 8, 0,10, 0.00,60.00,Monday
281,20.000000000000008
282,4.840773431878424
283,4.790440379195391
2,8, 1, 8, 0,11, 0.00,60.00,Monday
281,20.000000000000055
282,7.137181535832073
283,5.748115270820614
2,8, 1, 8, 0,12, 0.00,60.00,Monday
281,20.000000000000008
282,7.85085603895756
283,6.423175506514135
2,8, 1, 8, 0,13, 0.00,60.00,Monday
281,20.000000000000005
282,10.634853780046406
283,7.422181856176393
2,8, 1, 8, 0,14, 0.00,60.00,Monday
281,20.224533481395914
282,10.814864033881138
283,7.892919720469634
2,8, 1, 8, 0,15, 0.00,60.00,Monday
281,20.369041057108704
282,8.251864396065655
283,7.7469423329957058
2,8, 1, 8, 0,16, 0.00,60.00,Monday
281,20.500707631158737
282,7.51830741556654
283,7.6827742442187
2,8, 1, 8, 0,17, 0.00,60.00,Monday
281,20.05861591153156
282,4.985956129674979
283,7.000572571950191
2,8, 1, 8, 0,18, 0.00,60.00,Monday
281,20.00130464609829
282,1.1938244499402083
283,5.718374521456663
2,8, 1, 8, 0,19, 0.00,60.00,Monday
281,20.00004383200552
282,-0.3769970468861924
283,5.208957485577593
2,8, 1, 8, 0,20, 0.00,60.00,Monday
281,20.000001936781677
282,-1.5896125711495766
283,4.759273746601729
2,8, 1, 8, 0,21, 0.00,60.00,Monday
281,20.000000099921637
282,-1.099742328244081
283,4.632166747671968
2,8, 1, 8, 0,22, 0.00,60.00,Monday
281,20.000000005617197
282,-2.168805821356627
283,4.238402459781332
2,8, 1, 8, 0,23, 0.00,60.00,Monday
281,20.000000000299104
282,-1.7313583493791032
283,4.162544890105814
2,8, 1, 8, 0,24, 0.00,60.00,Monday
281,20.000000000018227
282,-2.7920180412355855
283,3.819062883035926
2,9, 1, 9, 0, 1, 0.00,60.00,Tuesday
281,20.000000000001209
282,-3.304227020244053
283,3.546633860200052
2,9, 1, 9, 0, 2, 0.00,60.00,Tuesday
281,20.000000000000207
282,-3.3295581839271355
283,3.381616696419475
2,9, 1, 9, 0, 3, 0.00,60.00,Tuesday
281,20.000000000000165
282,-3.3450831568873604
283,3.226755857775339
2,9, 1, 9, 0, 4, 0.00,60.00,Tuesday
281,20.000000000000154
282,-3.353559768707188
283,3.08331948416493
2,9, 1, 9, 0, 5, 0.00,60.00,Tuesday
281,20.00000000000017
282,-3.9384399465598727
283,2.843907063769509
2,9, 1, 9, 0, 6, 0.00,60.00,Tuesday
281,20.000000000000168
282,-3.387158481451387
283,2.8128649200794717
2,9, 1, 9, 0, 7, 0.00,60.00,Tuesday
281,19.999999999999937
282,-5.111841162847974
283,2.4067963203175157
2,9, 1, 9, 0, 8, 0.00,60.00,Tuesday
281,20.000000000000055
282,-1.6188469184754396
283,2.9758955865073308
2,9, 1, 9, 0, 9, 0.00,60.00,Tuesday
281,19.999999999999998
282,0.25852042082735096
283,3.492976125073386
2,9, 1, 9, 0,10, 0.00,60.00,Tuesday
281,20.00000000000008
282,2.6765584439276117
283,4.161801031269704
2,9, 1, 9, 0,11, 0.00,60.00,Tuesday
281,20.0
282,3.930325538620115
283,4.692870802628014
2,9, 1, 9, 0,12, 0.00,60.00,Tuesday
281,20.00000000000001
282,3.5348631158109704
283,4.891797470388451
2,9, 1, 9, 0,13, 0.00,60.00,Tuesday
281,20.00000000000004
282,3.5800151281757217
283,5.152634164020525
2,9, 1, 9, 0,14, 0.00,60.00,Tuesday
281,20.000000000000037
282,4.157100026829174
283,5.568990270650934
2,9, 1, 9, 0,15, 0.00,60.00,Tuesday
281,20.00000000000001
282,4.64026640519947
283,6.02036999552279
2,9, 1, 9, 0,16, 0.00,60.00,Tuesday
281,20.000000000000005
282,4.2013751106537839
283,6.04805641770307
2,9, 1, 9, 0,17, 0.00,60.00,Tuesday
281,20.000000000000044
282,3.086090996014952
283,5.6715741427188839
2,9, 1, 9, 0,18, 0.00,60.00,Tuesday
281,20.000000000000015
282,1.3203990675628235
283,5.021460537924726
2,9, 1, 9, 0,19, 0.00,60.00,Tuesday
281,20.000000000000058
282,0.10652060088163724
283,4.661433379598184
2,9, 1, 9, 0,20, 0.00,60.00,Tuesday
281,20.000000000000005
282,0.5707675157149341
283,4.635674753961632
2,9, 1, 9, 0,21, 0.00,60.00,Tuesday
281,20.000000000000065
282,-1.6407817333685833
283,4.028703928395962
2,9, 1, 9, 0,22, 0.00,60.00,Tuesday
281,20.000000000000119
282,-1.7139800745301044
283,3.877270211720252
2,9, 1, 9, 0,23, 0.00,60.00,Tuesday
281,20.00000000000014
282,-2.7815838847209246
283,3.545530362385527
2,9, 1, 9, 0,24, 0.00,60.00,Tuesday
281,20.00000000000015
282,-4.356351094265115
283,3.0744021718679175
2,10, 1,10, 0, 1, 0.00,60.00,Wednesday
281,20.00000000000004
282,-4.40956084943448
283,2.8857731173626117
2,10, 1,10, 0, 2, 0.00,60.00,Wednesday
281,20.000000000000019
282,-5.005294340729133
283,2.607385462846914
2,10, 1,10, 0, 3, 0.00,60.00,Wednesday
281,19.999999999999795
282,-5.044554797554064
283,2.430492644970948
2,10, 1,10, 0, 4, 0.00,60.00,Wednesday
281,19.999999999999909
282,-5.627059727916517
283,2.165411348377939
2,10, 1,10, 0, 5, 0.00,60.00,Wednesday
281,20.00000000000012
282,-6.122024324972825
283,1.912581222351756
2,10, 1,10, 0, 6, 0.00,60.00,Wednesday
281,20.00000000000018
282,-6.714248424933636
283,1.6458484668264282
2,10, 1,10, 0, 7, 0.00,60.00,Wednesday
281,19.9999999999999
282,-5.733875236607555
283,1.6797293032387726
2,10, 1,10, 0, 8, 0.00,60.00,Wednesday
281,20.000000000000147
282,-5.095311733675796
283,1.736171435704074
2,10, 1,10, 0, 9, 0.00,60.00,Wednesday
281,20.000000000000126
282,-1.8426041624786316
283,2.4072863275513596
2,10, 1,10, 0,10, 0.00,60.00,Wednesday
281,20.000000000000065
282,1.5683898130148589
283,3.3152827542706699
2,10, 1,10, 0,11, 0.00,60.00,Wednesday
281,19.999999999999966
282,4.347570496930494
283,4.224578460684894
2,10, 1,10, 0,12, 0.00,60.00,Wednesday
281,20.00000000000002
282,6.2169902764629
283,5.204323242382229
2,10, 1,10, 0,13, 0.00,60.00,Wednesday
281,20.000000000000019
282,8.131015122326922
283,6.112175309087916
2,10, 1,10, 0,14, 0.00,60.00,Wednesday
281,20.000000000000005
282,8.305681016252166
283,6.524755394058217
2,10, 1,10, 0,15, 0.00,60.00,Wednesday
281,20.187145848887515
282,12.523065914480949
283,6.802964788615659
2,10, 1,10, 0,16, 0.00,60.00,Wednesday
281,20.332078395258916
282,7.057910526848751
283,6.938217965119392
2,10, 1,10, 0,17, 0.00,60.00,Wednesday
281,20.000694103606365
282,4.554659502936208
283,6.1382992940239229
2,10, 1,10, 0,18, 0.00,60.00,Wednesday
281,20.000016039201485
282,1.414345449822616
283,5.185421795575191
2,10, 1,10, 0,19, 0.00,60.00,Wednesday
281,20.000000555813214
282,-0.7395267980768103
283,4.553029705169857
2,10, 1,10, 0,20, 0.00,60.00,Wednesday
281,20.000000022980264
282,-2.0064191107383939
283,4.116166557270022
2,10, 1,10, 0,21, 0.00,60.00,Wednesday
281,20.000000001197127
282,-1.1456377718904063
283,4.104257200986112
2,10, 1,10, 0,22, 0.00,60.00,Wednesday
281,20.000000000071766
282,-3.2503750291447495
283,3.4971072963752767
2,10, 1,10, 0,23, 0.00,60.00,Wednesday
281,20.000000000004645
282,-4.332846769205071
283,3.090533038218955
2,10, 1,10, 0,24, 0.00,60.00,Wednesday
281,20.000000000000367
282,-4.995191319322689
283,2.8013106899191628
2,11, 1,11, 0, 1, 0.00,60.00,Thursday
281,20.00000000000008
282,-5.5930373730492148
283,2.487584499638694
2,11, 1,11, 0, 2, 0.00,60.00,Thursday
281,20.00000000000009
282,-6.103283910114969
283,2.1914110257093126
2,11, 1,11, 0, 3, 0.00,60.00,Thursday
281,20.000000000000168
282,-6.141185200786745
283,2.000373967724632
2,11, 1,11, 0, 4, 0.00,60.00,Thursday
281,20.000000000000015
282,-5.675645700348078
283,1.9130753416631763
2,11, 1,11, 0, 5, 0.00,60.00,Thursday
281,20.000000000000033
282,-5.083761082115511
283,1.867189683801607
2,11, 1,11, 0, 6, 0.00,60.00,Thursday
281,20.00000000000004
282,-4.01801421112637
283,1.9499642190034255
2,11, 1,11, 0, 7, 0.00,60.00,Thursday
281,20.000000000000005
282,-3.996568446064325
283,1.8771377408694648
2,11, 1,11, 0, 8, 0.00,60.00,Thursday
281,20.00000000000015
282,-3.395718812412074
283,1.9305073086042646
2,11, 1,11, 0, 9, 0.00,60.00,Thursday
281,20.000000000000015
282,-1.7877378770957373
283,2.2688673630115105
2,11, 1,11, 0,10, 0.00,60.00,Thursday
281,20.0000000000001
282,1.0026171024150579
283,3.0060235013536524
2,11, 1,11, 0,11, 0.00,60.00,Thursday
281,20.000000000000005
282,6.914473909829427
283,4.578953984105446
2,11, 1,11, 0,12, 0.00,60.00,Thursday
281,20.000000000000087
282,8.104009409519055
283,5.6156558519844899
2,11, 1,11, 0,13, 0.00,60.00,Thursday
281,20.000000000000019
282,10.685277137152989
283,6.592502122264201
2,11, 1,11, 0,14, 0.00,60.00,Thursday
281,20.055214141120616
282,11.795247347003734
283,7.299755765423037
2,11, 1,11, 0,15, 0.00,60.00,Thursday
281,20.000014855915408
282,12.272924217373325
283,7.757379621271888
2,11, 1,11, 0,16, 0.00,60.00,Thursday
281,20.000000128191659
282,10.208746416643049
283,7.624182123912448
2,11, 1,11, 0,17, 0.00,60.00,Thursday
281,20.00000000198001
282,8.51274463264284
283,7.335090044793374
2,11, 1,11, 0,18, 0.00,60.00,Thursday
281,20.000000000037127
282,7.896984808040135
283,7.165117770952013
2,11, 1,11, 0,19, 0.00,60.00,Thursday
281,20.00000000000073
282,7.235037021123346
283,6.949970956860237
2,11, 1,11, 0,20, 0.00,60.00,Thursday
281,19.999999999999969
282,5.640916653375331
283,6.439875328839957
2,11, 1,11, 0,21, 0.00,60.00,Thursday
281,20.0
282,4.431905404618427
283,5.974291213639597
2,11, 1,11, 0,22, 0.00,60.00,Thursday
281,20.000000000000015
282,5.9952560984539799
283,6.342922567446357
2,11, 1,11, 0,23, 0.00,60.00,Thursday
281,19.999999999999966
282,4.414419776028001
283,5.857139934683953
2,11, 1,11, 0,24, 0.00,60.00,Thursday
281,20.000000000000076
282,3.886831145597467
283,5.556351473949949
2,12, 1,12, 0, 1, 0.00,60.00,Friday