Program Version,EnergyPlus, Version 9.2.0-921312fa1d, YMD=2019.10.24 09:57
1,5,Environment Title[],Latitude[deg],Longitude[deg],Time Zone[],Elevation[m]
2,8,Day of Simulation[],Month[],Day of Month[],DST Indicator[1=yes 0=no],Hour[],StartMinute[],EndMinute[],DayType
3,5,Cumulative Day of Simulation[],Month[],Day of Month[],DST Indicator[1=yes 0=no],DayType  ! When Daily Report Variables Requested
4,2,Cumulative Days of Simulation[],Month[]  ! When Monthly Report Variables Requested
5,1,Cumulative Days of Simulation[] ! When Run Period Report Variables Requested
6,1,Calendar Year of Simulation[] ! When Annual Report Variables Requested
276,9,EMS,central ac supply fan cool disaggregate [J] !Monthly [Value,Min,Day,Hour,Minute,Max,Day,Hour,Minute]
277,11,EMS,central ac supply fan cool disaggregate [J] !RunPeriod [Value,Min,Month,Day,Hour,Minute,Max,Month,Day,Hour,Minute]
278,11,EMS,furnace supply fan heat disaggregate [J] !RunPeriod [Value,Min,Month,Day,Hour,Minute,Max,Month,Day,Hour,Minute]
279,9,EMS,furnace supply fan heat disaggregate [J] !Monthly [Value,Min,Day,Hour,Minute,Max,Day,Hour,Minute]
280,11,EMS,water heater EC adjustment [J] !RunPeriod [Value,Min,Month,Day,Hour,Minute,Max,Month,Day,Hour,Minute]
281,1,LIVING,Zone Mean Air Temperature [C] !Hourly
282,1,VENTED ATTIC,Zone Mean Air Temperature [C] !Hourly
283,1,VENTED CRAWLSPACE,Zone Mean Air Temperature [C] !Hourly
585,11,CENTRAL AC CLG COIL,Cooling Coil Electric Energy [J] !RunPeriod [Value,Min,Month,Day,Hour,Minute,Max,Month,Day,Hour,Minute]
611,11,FURNACE HTG COIL,Heating Coil Gas Energy [J] !RunPeriod [Value,Min,Month,Day,Hour,Minute,Max,Month,Day,Hour,Minute]
876,11,WATER USE CONNECTIONS 1,Water Use Connections Plant Hot Water Energy [J] !RunPeriod [Value,Min,Month,Day,Hour,Minute,Max,Month,Day,Hour,Minute]
913,11,WATER HEATER,Water Heater Heat Loss Energy [J] !RunPeriod [Value,Min,Month,Day,Hour,Minute,Max,Month,Day,Hour,Minute]
928,11,WATER HEATER,Water Heater Electric Energy [J] !RunPeriod [Value,Min,Month,Day,Hour,Minute,Max,Month,Day,Hour,Minute]
966,11,WATER HEATER,Water Heater Off Cycle Parasitic Electric Energy [J] !RunPeriod [Value,Min,Month,Day,Hour,Minute,Max,Month,Day,Hour,Minute]
968,11,WATER HEATER,Water Heater On Cycle Parasitic Electric Energy [J] !RunPeriod [Value,Min,Month,Day,Hour,Minute,Max,Month,Day,Hour,Minute]
1131,11,CENTRAL AC CLG COIL,Cooling Coil Crankcase Heater Electric Energy [J] !RunPeriod [Value,Min,Month,Day,Hour,Minute,Max,Month,Day,Hour,Minute]
End of Data Dictionary
1,RUN PERIOD 1,  39.83,-104.65,  -7.00,1650.00
2,1, 1, 1, 0, 1, 0.00,60.00,Monday
281,20.000000000000218
282,-13.196616166588985
283,10.823069563960456
2,1, 1, 1, 0, 2, 0.00,60.00,Monday
281,20.00000000000002
282,-13.703747867712654
283,9.879696575683694
2,1, 1, 1, 0, 3, 0.00,60.00,Monday
281,20.00000000000015
282,-13.878043809733548
283,9.27578092103873
2,1, 1, 1, 0, 4, 0.00,60.00,Monday
281,20.000000000000229
282,-15.065639505236396
283,8.73324255462028
2,1, 1, 1, 0, 5, 0.00,60.00,Monday
281,20.00000000000021
282,-15.100287716977677
283,8.349009432060264
2,1, 1, 1, 0, 6, 0.00,60.00,Monday
281,20.00000000000002
282,-14.227648541702275
283,8.159931411869474
2,1, 1, 1, 0, 7, 0.00,60.00,Monday
281,20.000000000000008
282,-13.199567125101764
283,7.968181012829601
2,1, 1, 1, 0, 8, 0.00,60.00,Monday
281,20.000000000000108
282,-8.901552362808666
283,7.9290804976499908
2,1, 1, 1, 0, 9, 0.00,60.00,Monday
281,19.999999999999895
282,-6.907293273285542
283,7.938078807675732
2,1, 1, 1, 0,10, 0.00,60.00,Monday
281,20.00000000000012
282,-2.8116397444482255
283,8.345788803340549
2,1, 1, 1, 0,11, 0.00,60.00,Monday
281,19.999999999999959
282,1.1403836675509323
283,8.902603738066743
2,1, 1, 1, 0,12, 0.00,60.00,Monday
281,20.000000000000044
282,2.9352898010501669
283,9.222814873068654
2,1, 1, 1, 0,13, 0.00,60.00,Monday
281,20.000000000000158
282,4.4957846769552749
283,9.596225674189517
2,1, 1, 1, 0,14, 0.00,60.00,Monday
281,20.000000000000008
282,3.458509618854648
283,9.538425060962755
2,1, 1, 1, 0,15, 0.00,60.00,Monday
281,20.000000000000005
282,4.019199281191419
283,9.700594758094539
2,1, 1, 1, 0,16, 0.00,60.00,Monday
281,19.999999999999984
282,2.4110413011773734
283,9.458314874835717
2,1, 1, 1, 0,17, 0.00,60.00,Monday
281,20.00000000000004
282,-0.17048019502028215
283,8.914462976656635
2,1, 1, 1, 0,18, 0.00,60.00,Monday
281,19.99999999999995
282,-2.0338797857524968
283,8.5032487196206
2,1, 1, 1, 0,19, 0.00,60.00,Monday
281,20.000000000000026
282,-4.8061704831747049
283,7.84060801535054
2,1, 1, 1, 0,20, 0.00,60.00,Monday
281,19.999999999999998
282,-5.510893094710933
283,7.489634822234353
2,1, 1, 1, 0,21, 0.00,60.00,Monday
281,19.99999999999998
282,-5.986478782858777
283,7.166906324477611
2,1, 1, 1, 0,22, 0.00,60.00,Monday
281,20.000000000000147
282,-6.1373716215416229
283,6.914862169356804
2,1, 1, 1, 0,23, 0.00,60.00,Monday
281,20.00000000000008
282,-6.17209747177143
283,6.676218192302745
2,1, 1, 1, 0,24, 0.00,60.00,Monday
281,19.999999999999873
282,-5.082177303890197
283,6.637467854822569
2,2, 1, 2, 0, 1, 0.00,60.00,Tuesday
281,20.000000000000154
282,-5.057077989205539
283,6.447368219890736
2,2, 1, 2, 0, 2, 0.00,60.00,Tuesday
281,20.000000000000349
282,-5.6401653503217139
283,6.152239796732269
2,2, 1, 2, 0, 3, 0.00,60.00,Tuesday
281,20.00000000000014
282,-5.066048897534893
283,6.053562595490969
2,2, 1, 2, 0, 4, 0.00,60.00,Tuesday
281,20.000000000000193
282,-6.70783426793809
283,5.602486180612792
2,2, 1, 2, 0, 5, 0.00,60.00,Tuesday
281,19.99999999999984
282,-5.707560487651961
283,5.556048591747035
2,2, 1, 2, 0, 6, 0.00,60.00,Tuesday
281,20.000000000000335
282,-6.189830290481164
283,5.327288279877427
2,2, 1, 2, 0, 7, 0.00,60.00,Tuesday
281,20.00000000000019
282,-4.654929090292583
283,5.4257864607645989
2,2, 1, 2, 0, 8, 0.00,60.00,Tuesday
281,20.000000000000094
282,-3.418102620818696
283,5.580675429976677
2,2, 1, 2, 0, 9, 0.00,60.00,Tuesday
281,20.00000000000015
282,-2.080680623414854
283,5.701065239446292
2,2, 1, 2, 0,10, 0.00,60.00,Tuesday
281,19.999999999999998
282,1.782400778152398
283,6.348443669147988
2,2, 1, 2, 0,11, 0.00,60.00,Tuesday
281,20.0
282,5.425574827934922
283,7.117316110025267
2,2, 1, 2, 0,12, 0.00,60.00,Tuesday
281,20.00000000000002
282,8.972269424664554
283,8.004022189899962
2,2, 1, 2, 0,13, 0.00,60.00,Tuesday
281,20.000000000000037
282,9.722495454360474
283,8.492102369246858
2,2, 1, 2, 0,14, 0.00,60.00,Tuesday
281,20.0
282,9.898726331486826
283,8.797504361430626
2,2, 1, 2, 0,15, 0.00,60.00,Tuesday
281,20.0
282,10.397037912466289
283,9.216287403341346
2,2, 1, 2, 0,16, 0.00,60.00,Tuesday
281,20.0
282,8.354741908031097
283,8.939398715191749
2,2, 1, 2, 0,17, 0.00,60.00,Tuesday
281,20.0
282,7.1514830337285659
283,8.81848435220631
2,2, 1, 2, 0,18, 0.00,60.00,Tuesday
281,19.999999999999909
282,5.242820697206434
283,8.521631370898316
2,2, 1, 2, 0,19, 0.00,60.00,Tuesday
281,20.000000000000079
282,1.4517703465076235
283,7.68083385836707
2,2, 1, 2, 0,20, 0.00,60.00,Tuesday
281,19.99999999999996
282,0.18608402653314419
283,7.352442421704606
2,2, 1, 2, 0,21, 0.00,60.00,Tuesday
281,20.000000000000008
282,-1.5552745550158907
283,6.908052987327172
2,2, 1, 2, 0,22, 0.00,60.00,Tuesday
281,19.999999999999998
282,-1.1363201632490064
283,6.854107090011767
2,2, 1, 2, 0,23, 0.00,60.00,Tuesday
281,20.0
282,-1.4391308754525119
283,7.03142205264459
2,2, 1, 2, 0,24, 0.00,60.00,Tuesday
281,19.999999999999923
282,-0.3185729921945499
283,6.838891266733768
2,3, 1, 3, 0, 1, 0.00,60.00,Wednesday
281,19.999999999999916
282,-0.7505064398475123
283,6.613213304719954
2,3, 1, 3, 0, 2, 0.00,60.00,Wednesday
281,20.000000000000058
282,-0.7087549606543534
283,6.496429994051406
2,3, 1, 3, 0, 3, 0.00,60.00,Wednesday
281,20.000000000000108
282,-1.1725655231625867
283,6.291685271816468
2,3, 1, 3, 0, 4, 0.00,60.00,Wednesday
281,20.000000000000197
282,-1.7535613120634753
283,6.054084615223422
2,3, 1, 3, 0, 5, 0.00,60.00,Wednesday
281,20.00000000000006
282,-1.761306355329655
283,5.913369964222792
2,3, 1, 3, 0, 6, 0.00,60.00,Wednesday
281,20.000000000000285
282,-1.1759898745033506
283,5.8953548800004829
2,3, 1, 3, 0, 7, 0.00,60.00,Wednesday
281,20.00000000000008
282,-1.1732445071685065
283,5.791393443845629
2,3, 1, 3, 0, 8, 0.00,60.00,Wednesday
281,20.000000000000143
282,-0.6751224880363824
283,5.777364844976727
2,3, 1, 3, 0, 9, 0.00,60.00,Wednesday
281,19.99999999999992
282,3.0622278235099666
283,6.393726389982303
2,3, 1, 3, 0,10, 0.00,60.00,Wednesday
281,20.000000000000126
282,5.412910995718381
283,6.9210237735712198
2,3, 1, 3, 0,11, 0.00,60.00,Wednesday
281,20.000000000000076
282,6.299678974205343
283,7.182139767202063
2,3, 1, 3, 0,12, 0.00,60.00,Wednesday
281,20.000000000000026
282,6.7841737732641
283,7.494892894783374
2,3, 1, 3, 0,13, 0.00,60.00,Wednesday
281,20.00000000000005
282,5.758676961483844
283,7.4842666217003039
2,3, 1, 3, 0,14, 0.00,60.00,Wednesday
281,20.000000000000044
282,4.746885701144906
283,7.412677555842633
2,3, 1, 3, 0,15, 0.00,60.00,Wednesday
281,20.000000000000026
282,2.580768914008491
283,7.003309615458545
2,3, 1, 3, 0,16, 0.00,60.00,Wednesday
281,20.000000000000005
282,0.017388901321341328
283,6.499316228866222
2,3, 1, 3, 0,17, 0.00,60.00,Wednesday
281,20.00000000000006
282,-2.5947913394478916
283,5.932669312988454
2,3, 1, 3, 0,18, 0.00,60.00,Wednesday
281,20.000000000000143
282,-5.236505980637467
283,5.283506939578396
2,3, 1, 3, 0,19, 0.00,60.00,Wednesday
281,20.000000000000104
282,-5.3081532995620919
283,5.104035971422639
2,3, 1, 3, 0,20, 0.00,60.00,Wednesday
281,20.00000000000014
282,-6.310340420225948
283,4.631348734370737
2,3, 1, 3, 0,21, 0.00,60.00,Wednesday
281,20.000000000000165
282,-8.240258017110044
283,4.129009807824314
2,3, 1, 3, 0,22, 0.00,60.00,Wednesday
281,20.000000000000015
282,-9.64765797207653
283,3.699128028668075
2,3, 1, 3, 0,23, 0.00,60.00,Wednesday
281,20.000000000000069
282,-11.100547283886926
283,3.196105623274384
2,3, 1, 3, 0,24, 0.00,60.00,Wednesday
281,20.000000000000115
282,-12.17536308921243
283,2.7787453876644485
2,4, 1, 4, 0, 1, 0.00,60.00,Thursday
281,20.000000000000214
282,-12.469083366499893
283,2.335460478954591
2,4, 1, 4, 0, 2, 0.00,60.00,Thursday
281,20.00000000000025
282,-14.066449763919945
283,1.6105955276907385
2,4, 1, 4, 0, 3, 0.00,60.00,Thursday
281,20.00000000000026
282,-15.854359881086282
283,1.2950815348114562
2,4, 1, 4, 0, 4, 0.00,60.00,Thursday
281,19.99999999999998
282,-14.76538795777683
283,1.2618734834391786
2,4, 1, 4, 0, 5, 0.00,60.00,Thursday
281,20.000000000000005
282,-14.41637351613911
283,1.099681588254697
2,4, 1, 4, 0, 6, 0.00,60.00,Thursday
281,20.0
282,-13.696294767134197
283,1.0332914873992188
2,4, 1, 4, 0, 7, 0.00,60.00,Thursday
281,20.000000000000143
282,-14.46121869897175
283,1.0969049267231517
2,4, 1, 4, 0, 8, 0.00,60.00,Thursday
281,19.999999999999845
282,-12.851059542813097
283,1.4059842196061703
2,4, 1, 4, 0, 9, 0.00,60.00,Thursday
281,20.000000000000126
282,-9.999343179363186
283,1.8768072396555509
2,4, 1, 4, 0,10, 0.00,60.00,Thursday
281,20.000000000000129
282,-2.12933129535564
283,2.8155114295288885
2,4, 1, 4, 0,11, 0.00,60.00,Thursday
281,20.000000000000005
282,2.2611622687513117
283,3.6947854242063937
2,4, 1, 4, 0,12, 0.00,60.00,Thursday
281,20.00000000000012
282,2.813705780639977
283,4.0629206275061799
2,4, 1, 4, 0,13, 0.00,60.00,Thursday
281,20.000000000000108
282,7.7643557164280418
283,5.100806357108185
2,4, 1, 4, 0,14, 0.00,60.00,Thursday
281,20.00000000000003
282,9.455770040220307
283,5.885762549072264
2,4, 1, 4, 0,15, 0.00,60.00,Thursday
281,20.00000000000005
282,10.939667676612665
283,6.534400651368926
2,4, 1, 4, 0,16, 0.00,60.00,Thursday
281,20.00000000000008
282,9.980268643690217
283,6.703392375600494
2,4, 1, 4, 0,17, 0.00,60.00,Thursday
281,20.0
282,8.094069307735508
283,6.352621840144564
2,4, 1, 4, 0,18, 0.00,60.00,Thursday
281,19.99999999999999
282,7.208954093776465
283,6.397046617298857
2,4, 1, 4, 0,19, 0.00,60.00,Thursday
281,20.000000000000065
282,6.111777031354145
283,6.274500435595939
2,4, 1, 4, 0,20, 0.00,60.00,Thursday
281,20.000000000000076
282,7.02087193034186
283,6.572803767306352
2,4, 1, 4, 0,21, 0.00,60.00,Thursday
281,20.000000000000008
282,6.040372454250011
283,6.42476944983446
2,4, 1, 4, 0,22, 0.00,60.00,Thursday
281,20.0
282,5.508821534006663
283,6.330587912395485
2,4, 1, 4, 0,23, 0.00,60.00,Thursday
281,20.00000000000002
282,4.912718033735443
283,6.229989047452445
2,4, 1, 4, 0,24, 0.00,60.00,Thursday
281,19.99999999999997
282,9.777606263973988
283,7.298556471047419
2,5, 1, 5, 0, 1, 0.00,60.00,Friday
281,19.999999999999905
282,5.14660037216379
283,6.503631222417396
2,5, 1, 5, 0, 2, 0.00,60.00,Friday
281,19.999999999999994
282,10.300884197023697
283,7.526152050966827
2,5, 1, 5, 0, 3, 0.00,60.00,Friday
281,19.999999999999955
282,10.905457569893525
283,8.064857223130048
2,5, 1, 5, 0, 4, 0.00,60.00,Friday
281,19.999999999999959
282,9.319207456745348
283,7.832630808335624
2,5, 1, 5, 0, 5, 0.00,60.00,Friday
281,20.000000000000044
282,9.257437072626152
283,7.8239213714547939
2,5, 1, 5, 0, 6, 0.00,60.00,Friday
281,20.00000000000002
282,9.266481154299403
283,7.92654540917955
2,5, 1, 5, 0, 7, 0.00,60.00,Friday
281,20.00000000000012
282,5.113479346143018
283,6.6187610235924929
2,5, 1, 5, 0, 8, 0.00,60.00,Friday
281,20.000000000000065
282,9.115749379332958
283,7.75195995977868
2,5, 1, 5, 0, 9, 0.00,60.00,Friday
281,20.000000000000026
282,8.860894657453393
283,7.996331468650885
2,5, 1, 5, 0,10, 0.00,60.00,Friday
281,20.083998560251187
282,12.657382907348453
283,9.216372940813696
2,5, 1, 5, 0,11, 0.00,60.00,Friday
281,20.094064031215294
282,12.877129715591796
283,9.382970109880722
2,5, 1, 5, 0,12, 0.00,60.00,Friday
281,20.744299101602068
282,15.113358515966676
283,10.067734767112102
2,5, 1, 5, 0,13, 0.00,60.00,Friday
281,21.139593997957659
282,14.808887512408413
283,10.299592894397675
2,5, 1, 5, 0,14, 0.00,60.00,Friday
281,21.31489233715809
282,13.636050640421543
283,10.290527058236247
2,5, 1, 5, 0,15, 0.00,60.00,Friday
281,21.282098830130808
282,11.20602397531606
283,9.962409101147192
2,5, 1, 5, 0,16, 0.00,60.00,Friday
281,21.22918585420884
282,9.535379458897295
283,9.561612541928576
2,5, 1, 5, 0,17, 0.00,60.00,Friday
281,20.823053582597898
282,6.520306039014984
283,8.912033891200882
2,5, 1, 5, 0,18, 0.00,60.00,Friday
281,20.578122954142004
282,5.961462571760472
283,8.786950072709935
2,5, 1, 5, 0,19, 0.00,60.00,Friday
281,20.336902337340207
282,4.081748185552653
283,8.26168564962786
2,5, 1, 5, 0,20, 0.00,60.00,Friday
281,20.078278350083158
282,3.3687507475695557
283,7.944930221625497
2,5, 1, 5, 0,21, 0.00,60.00,Friday
281,20.000899012573169
282,1.7786136279210776
283,7.432622859924257
2,5, 1, 5, 0,22, 0.00,60.00,Friday
281,20.000022107210918
282,0.21442293756905307
283,6.907743091943252
2,5, 1, 5, 0,23, 0.00,60.00,Friday
281,20.000000795638195
282,0.5554725013462253
283,6.80069982913786
2,5, 1, 5, 0,24, 0.00,60.00,Friday
281,20.000000038940344
282,-0.03993886780064439
283,6.516661393398346
2,6, 1, 6, 0, 1, 0.00,60.00,Saturday
281,20.000000002081465
282,-0.060115538771266217
283,6.325249652052671
2,6, 1, 6, 0, 2, 0.00,60.00,Saturday
281,20.00000000010495
282,0.9698985227168383
283,6.373427488309989
2,6, 1, 6, 0, 3, 0.00,60.00,Saturday
281,20.000000000005536
282,0.5265331391414908
283,6.165291414267606
2,6, 1, 6, 0, 4, 0.00,60.00,Saturday
281,20.000000000000246
282,-0.0416403420188183
283,5.919114153066898
2,6, 1, 6, 0, 5, 0.00,60.00,Saturday
281,20.000000000000136
282,-0.6627937795024661
283,5.679346468725163
2,6, 1, 6, 0, 6, 0.00,60.00,Saturday
281,20.00000000000001
282,-0.16380087682709905
283,5.670255627462965
2,6, 1, 6, 0, 7, 0.00,60.00,Saturday
281,20.00000000000004
282,-0.6859073738119245
283,5.455065249513178
2,6, 1, 6, 0, 8, 0.00,60.00,Saturday
281,19.999999999999905
282,-0.6749020632019606
283,5.327351743550498
2,6, 1, 6, 0, 9, 0.00,60.00,Saturday
281,19.999999999999998
282,-0.614238073730138
283,5.237521699351364
2,6, 1, 6, 0,10, 0.00,60.00,Saturday
281,19.999999999999944
282,0.09239584511028931
283,5.291568011130004
2,6, 1, 6, 0,11, 0.00,60.00,Saturday
281,20.00000000000004
282,0.8537792585455564
283,5.2878511873252409
2,6, 1, 6, 0,12, 0.00,60.00,Saturday
281,20.000000000000005
282,1.6481535356046624
283,5.5085586074071639
2,6, 1, 6, 0,13, 0.00,60.00,Saturday
281,20.00000000000003
282,1.949168397602036
283,5.710843205141884
2,6, 1, 6, 0,14, 0.00,60.00,Saturday
281,20.00000000000003
282,1.4009512095963635
283,5.69428899806817
2,6, 1, 6, 0,15, 0.00,60.00,Saturday
281,20.00000000000002
282,1.8667860928304508
283,5.887642439290487
2,6, 1, 6, 0,16, 0.00,60.00,Saturday
281,20.000000000000008
282,0.7996163387220346
283,5.768316550379646
2,6, 1, 6, 0,17, 0.00,60.00,Saturday
281,20.00000000000004
282,-0.46537777992139797
283,5.5395459692605268
2,6, 1, 6, 0,18, 0.00,60.00,Saturday
281,19.999999999999955
282,-1.5629284916657598
283,5.273870125971483
2,6, 1, 6, 0,19, 0.00,60.00,Saturday
281,20.000000000000129
282,-3.15496073744564
283,4.858367026708995
2,6, 1, 6, 0,20, 0.00,60.00,Saturday
281,20.000000000000044
282,-4.325909391279842
283,4.491319469398325
2,6, 1, 6, 0,21, 0.00,60.00,Saturday
281,20.00000000000004
282,-5.7752944193597879
283,4.001263680724945
2,6, 1, 6, 0,22, 0.00,60.00,Saturday
281,20.000000000000158
282,-7.587196389414345
283,3.486533148102593
2,6, 1, 6, 0,23, 0.00,60.00,Saturday
281,19.9999999999999
282,-7.701465196116905
283,3.250569932639865
2,6, 1, 6, 0,24, 0.00,60.00,Saturday
281,19.99999999999996
282,-8.788694945134838
283,2.852983042600788
2,7, 1, 7, 0, 1, 0.00,60.00,Sunday
281,20.000000000000129
282,-8.875880762937868
283,2.6394906863925979
2,7, 1, 7, 0, 2, 0.00,60.00,Sunday
281,20.00000000000023
282,-8.329152959037886
283,2.559480084308574
2,7, 1, 7, 0, 3, 0.00,60.00,Sunday
281,19.999999999999824
282,-10.480749353918963
283,1.9898879360748814
2,7, 1, 7, 0, 4, 0.00,60.00,Sunday
281,20.00000000000021
282,-11.841444711279458
283,1.4902661398661886
2,7, 1, 7, 0, 5, 0.00,60.00,Sunday
281,20.00000000000002
282,-12.085065848956516
283,0.9597696132291875
2,7, 1, 7, 0, 6, 0.00,60.00,Sunday
281,20.00000000000021
282,-12.751903790564893
283,0.891014644571529
2,7, 1, 7, 0, 7, 0.00,60.00,Sunday
281,20.00000000000024
282,-12.789081272851698
283,0.6879819871935258
2,7, 1, 7, 0, 8, 0.00,60.00,Sunday
281,20.000000000000019
282,-3.533128522647972
283,2.112785322384505
2,7, 1, 7, 0, 9, 0.00,60.00,Sunday
281,19.99999999999999
282,-1.1423766119826347
283,2.663739209005099
2,7, 1, 7, 0,10, 0.00,60.00,Sunday
281,19.99999999999993
282,0.23349371183464513
283,3.0368827611928546
2,7, 1, 7, 0,11, 0.00,60.00,Sunday
281,20.00000000000013
282,2.1703699452063667
283,3.492289835002744
2,7, 1, 7, 0,12, 0.00,60.00,Sunday
281,20.000000000000094
282,4.570524730266189
283,4.093370628170516
2,7, 1, 7, 0,13, 0.00,60.00,Sunday
281,20.000000000000115
282,5.408463774976326
283,4.457766544656466
2,7, 1, 7, 0,14, 0.00,60.00,Sunday
281,20.00000000000012
282,5.017841979062699
283,4.522751799431298
2,7, 1, 7, 0,15, 0.00,60.00,Sunday
281,20.000000000000058
282,4.9938750347569089
283,4.675372156318474
2,7, 1, 7, 0,16, 0.00,60.00,Sunday
281,20.00000000000011
282,4.451765831384831
283,4.691617327105964
2,7, 1, 7, 0,17, 0.00,60.00,Sunday
281,20.000000000000115
282,4.942184327537162
283,4.912953406626916
2,7, 1, 7, 0,18, 0.00,60.00,Sunday
281,20.00000000000002
282,5.517308656211394
283,5.164821040087752
2,7, 1, 7, 0,19, 0.00,60.00,Sunday
281,19.99999999999996
282,4.93627657411008
283,5.12914516928811
2,7, 1, 7, 0,20, 0.00,60.00,Sunday
281,19.999999999999994
282,4.352696719454886
283,5.050200471636769
2,7, 1, 7, 0,21, 0.00,60.00,Sunday
281,19.999999999999923
282,2.228513442662411
283,4.609716994077144
2,7, 1, 7, 0,22, 0.00,60.00,Sunday
281,19.999999999999994
282,-0.43247507107466118
283,4.018939040006062
2,7, 1, 7, 0,23, 0.00,60.00,Sunday
281,20.000000000000033
282,-0.022340017445294077
283,4.055597505294341
2,7, 1, 7, 0,24, 0.00,60.00,Sunday
281,20.00000000000002
282,1.554192162350549
283,4.345262420930861
2,8, 1, 8, 0, 1, 0.00,60.00,Monday
281,19.999999999999987
282,1.60781705170185
283,4.343571137556895
2,8, 1, 8, 0, 2, 0.00,60.00,Monday
281,19.999999999999927
282,1.053544377926734
283,4.2027375732340739
2,8, 1, 8, 0, 3, 0.00,60.00,Monday
281,19.99999999999999
282,-0.5761909397281765
283,3.843244040447317
2,8, 1, 8, 0, 4, 0.00,60.00,Monday
281,19.999999999999905
282,-1.6926806196260114
283,3.5653947596200328
2,8, 1, 8, 0, 5, 0.00,60.00,Monday
281,20.0
282,-3.2606352303702677
283,3.178605195884948
2,8, 1, 8, 0, 6, 0.00,60.00,Monday
281,20.0
282,-3.2922837871969574
283,3.057685571069368
2,8, 1, 8, 0, 7, 0.00,60.00,Monday
281,20.000000000000044
282,-4.376086392642865
283,2.753927964167974
2,8, 1, 8, 0, 8, 0.00,60.00,Monday
281,20.000000000000044
282,-2.915546746181459
283,2.910556279994598
2,8, 1, 8, 0, 9, 0.00,60.00,Monday
281,20.00000000000008
282,2.010300308575986
283,3.7848585987866945
2,8, 1, 8, 0,10, 0.00,60.00,Monday
281,20.00000000000006
282,4.840805431559865
283,4.559340350417015
2,8, 1, 8, 0,11, 0.00,60.00,Monday
281,20.00000000000004
282,7.137200808999041
283,5.3559190606911379
2,8, 1, 8, 0,12, 0.00,60.00,Monday
281,20.000000000000005
282,7.850864652938033
283,5.969401890097559
2,8, 1, 8, 0,13, 0.00,60.00,Monday
281,20.0
282,10.634883375115218
283,6.99819622038474
2,8, 1, 8, 0,14, 0.00,60.00,Monday
281,20.225727912887
282,10.814892239478653
283,7.3355767818232409
2,8, 1, 8, 0,15, 0.00,60.00,Monday
281,20.369862581387225
282,8.251886256355379
283,7.063582141505903
2,8, 1, 8, 0,16, 0.00,60.00,Monday
281,20.500198953236976
282,7.5183302536475
283,6.893604385973771
2,8, 1, 8, 0,17, 0.00,60.00,Monday
281,20.05983972517239
282,4.98596789290218
283,6.471182968571573
2,8, 1, 8, 0,18, 0.00,60.00,Monday
281,20.00132516997297
282,1.1938325677320164
283,5.448789265213898
2,8, 1, 8, 0,19, 0.00,60.00,Monday
281,20.000044365529179
282,-0.37699264558824149
283,5.186607045505556
2,8, 1, 8, 0,20, 0.00,60.00,Monday
281,20.000001945756734
282,-1.5896080744116006
283,4.839591243189571
2,8, 1, 8, 0,21, 0.00,60.00,Monday
281,20.00000010462498
282,-1.099734466210291
283,4.761237546458299
2,8, 1, 8, 0,22, 0.00,60.00,Monday
281,20.00000000595141
282,-2.1687961734239686
283,4.403927477009496
2,8, 1, 8, 0,23, 0.00,60.00,Monday
281,20.0000000003187
282,-1.7313447659855832
283,4.323694520051189
2,8, 1, 8, 0,24, 0.00,60.00,Monday
281,20.000000000019634
282,-2.7920011729684877
283,3.9849238760042735
2,9, 1, 9, 0, 1, 0.00,60.00,Tuesday
281,20.00000000000144
282,-3.3042135367894156
283,3.7310386912171507
2,9, 1, 9, 0, 2, 0.00,60.00,Tuesday
281,20.000000000000186
282,-3.329537794562122
283,3.584420484350109
2,9, 1, 9, 0, 3, 0.00,60.00,Tuesday
281,19.999999999999856
282,-3.345063724045705
283,3.455652530603772
2,9, 1, 9, 0, 4, 0.00,60.00,Tuesday
281,20.0000000000002
282,-3.3535402992224818
283,3.3337016436785604
2,9, 1, 9, 0, 5, 0.00,60.00,Tuesday
281,20.000000000000015
282,-3.938407432418628
283,3.104376219964442
2,9, 1, 9, 0, 6, 0.00,60.00,Tuesday
281,20.0
282,-3.387136260533001
283,3.08267483644319
2,9, 1, 9, 0, 7, 0.00,60.00,Tuesday
281,20.000000000000108
282,-5.111709013181553
283,2.675543880021346
2,9, 1, 9, 0, 8, 0.00,60.00,Tuesday
281,20.00000000000014
282,-1.618817497183555
283,3.2163904816895165
2,9, 1, 9, 0, 9, 0.00,60.00,Tuesday
281,20.000000000000108
282,0.2585810190566722
283,3.5827659805168197
2,9, 1, 9, 0,10, 0.00,60.00,Tuesday
281,19.999999999999937
282,2.676590207085289
283,4.085393301133231
2,9, 1, 9, 0,11, 0.00,60.00,Tuesday
281,20.0
282,3.9303476308202298
283,4.518964374495599
2,9, 1, 9, 0,12, 0.00,60.00,Tuesday
281,20.0
282,3.5349230003169604
283,4.606987253317781
2,9, 1, 9, 0,13, 0.00,60.00,Tuesday
281,20.000000000000033
282,3.580037084123167
283,4.752314893196771
2,9, 1, 9, 0,14, 0.00,60.00,Tuesday
281,20.000000000000005
282,4.15711914773045
283,5.07097260233013
2,9, 1, 9, 0,15, 0.00,60.00,Tuesday
281,20.00000000000001
282,4.640282984762015
283,5.415288958915417
2,9, 1, 9, 0,16, 0.00,60.00,Tuesday
281,19.99999999999999
282,4.201392149405984
283,5.509289560971027
2,9, 1, 9, 0,17, 0.00,60.00,Tuesday
281,20.00000000000004
282,3.0861068730489347
283,5.345579095154286
2,9, 1, 9, 0,18, 0.00,60.00,Tuesday
281,20.000000000000119
282,1.3204127953772607
283,4.9686141642870249
2,9, 1, 9, 0,19, 0.00,60.00,Tuesday
281,20.00000000000005
282,0.10653151568842218
283,4.703463140896915
2,9, 1, 9, 0,20, 0.00,60.00,Tuesday
281,20.0
282,0.5707766810216736
283,4.731334570520804
2,9, 1, 9, 0,21, 0.00,60.00,Tuesday
281,20.00000000000011
282,-1.6407663935601409
283,4.183478200593261
2,9, 1, 9, 0,22, 0.00,60.00,Tuesday
281,20.000000000000143
282,-1.7139675145965952
283,4.037408008548325
2,9, 1, 9, 0,23, 0.00,60.00,Tuesday
281,20.0000000000001
282,-2.781565781550033
283,3.712314775161126
2,9, 1, 9, 0,24, 0.00,60.00,Tuesday
281,19.999999999999824
282,-4.356332632677215
283,3.2591464621512689
2,10, 1,10, 0, 1, 0.00,60.00,Wednesday
281,20.000000000000179
282,-4.4095426861174069
283,3.0921218835118977
2,10, 1,10, 0, 2, 0.00,60.00,Wednesday
281,20.000000000000168
282,-5.005269374096435
283,2.8368533142662857
2,10, 1,10, 0, 3, 0.00,60.00,Wednesday
281,19.999999999999877
282,-5.0445225423718329
283,2.686708195110996
2,10, 1,10, 0, 4, 0.00,60.00,Wednesday
281,19.999999999999927
282,-5.6270335664103519
283,2.441828130898496
2,10, 1,10, 0, 5, 0.00,60.00,Wednesday
281,20.00000000000009
282,-6.121994422931043
283,2.2017919169103599
2,10, 1,10, 0, 6, 0.00,60.00,Wednesday
281,19.99999999999997
282,-6.714213385331061
283,1.9460048066757095
2,10, 1,10, 0, 7, 0.00,60.00,Wednesday
281,20.00000000000006
282,-5.7338372718359269
283,1.9836608158387277
2,10, 1,10, 0, 8, 0.00,60.00,Wednesday
281,20.000000000000158
282,-5.095286297787905
283,1.9889773153322697
2,10, 1,10, 0, 9, 0.00,60.00,Wednesday
281,19.999999999999895
282,-1.8425649946699845
283,2.5083656000481326
2,10, 1,10, 0,10, 0.00,60.00,Wednesday
281,20.00000000000009
282,1.568419769218358
283,3.239594563373898
2,10, 1,10, 0,11, 0.00,60.00,Wednesday
281,20.000000000000055
282,4.347605495388676
283,4.022869940068835
2,10, 1,10, 0,12, 0.00,60.00,Wednesday
281,19.99999999999997
282,6.2170031300997439
283,4.783263167180123
2,10, 1,10, 0,13, 0.00,60.00,Wednesday
281,19.999999999999998
282,8.131154578173537
283,5.662056710206439
2,10, 1,10, 0,14, 0.00,60.00,Wednesday
281,20.000000000000005
282,8.305750821146
283,5.948363320764615
2,10, 1,10, 0,15, 0.00,60.00,Wednesday
281,20.18996472478395
282,12.523247298603018
283,6.0887446882601579
2,10, 1,10, 0,16, 0.00,60.00,Wednesday
281,20.335212468520603
282,7.057986813450338
283,6.173880726392238
2,10, 1,10, 0,17, 0.00,60.00,Wednesday
281,20.00064761966205
282,4.554707974174724
283,5.6241407152585369
2,10, 1,10, 0,18, 0.00,60.00,Wednesday
281,20.000014842039407
282,1.414377917991831
283,4.901848296913061
2,10, 1,10, 0,19, 0.00,60.00,Wednesday
281,20.000000509164037
282,-0.7395063055545803
283,4.5441100224188759
2,10, 1,10, 0,20, 0.00,60.00,Wednesday
281,20.000000020802707
282,-2.006399622246016
283,4.203320824555598
2,10, 1,10, 0,21, 0.00,60.00,Wednesday
281,20.00000000106483
282,-1.1456203220423638
283,4.242191429803535
2,10, 1,10, 0,22, 0.00,60.00,Wednesday
281,20.00000000006476
282,-3.2503504025636458
283,3.689496418145728
2,10, 1,10, 0,23, 0.00,60.00,Wednesday
281,20.000000000004019
282,-4.332817208087652
283,3.2931111585143109
2,10, 1,10, 0,24, 0.00,60.00,Wednesday
281,20.000000000000428
282,-4.995175059279431
283,3.0121147622063577
2,11, 1,11, 0, 1, 0.00,60.00,Thursday
281,20.00000000000018
282,-5.593014749473755
283,2.713694911648471
2,11, 1,11, 0, 2, 0.00,60.00,Thursday
281,20.00000000000016
282,-6.103259219881382
283,2.435270038119375
2,11, 1,11, 0, 3, 0.00,60.00,Thursday
281,20.000000000000179
282,-6.141145804253773
283,2.2656949471381084
2,11, 1,11, 0, 4, 0.00,60.00,Thursday
281,20.000000000000015
282,-5.67562273102928
283,2.2075572004209809
2,11, 1,11, 0, 5, 0.00,60.00,Thursday
281,20.000000000000097
282,-5.08375729504929
283,2.1754541481921945
2,11, 1,11, 0, 6, 0.00,60.00,Thursday
281,20.00000000000017
282,-4.017987988873743
283,2.259138199209169
2,11, 1,11, 0, 7, 0.00,60.00,Thursday
281,20.000000000000204
282,-3.996540750265598
283,2.176747982467772
2,11, 1,11, 0, 8, 0.00,60.00,Thursday
281,20.000000000000015
282,-3.3956925359316205
283,2.196762540429715
2,11, 1,11, 0, 9, 0.00,60.00,Thursday
281,20.0
282,-1.787711875358843
283,2.4425924405614509
2,11, 1,11, 0,10, 0.00,60.00,Thursday
281,20.000000000000097
282,1.002653574135174
283,3.0065218270647007
2,11, 1,11, 0,11, 0.00,60.00,Thursday
281,20.000000000000104
282,6.9145580169099889
283,4.38727617735781
2,11, 1,11, 0,12, 0.00,60.00,Thursday
281,20.000000000000047
282,8.104082669801324
283,5.245459426253262
2,11, 1,11, 0,13, 0.00,60.00,Thursday
281,20.000000000000005
282,10.685303965374719
283,6.195543982169477
2,11, 1,11, 0,14, 0.00,60.00,Thursday
281,20.058068032109277
282,11.795263600413883
283,6.820773100132136
2,11, 1,11, 0,15, 0.00,60.00,Thursday
281,20.000010623639296
282,12.27293760841722
283,7.30907343521217
2,11, 1,11, 0,16, 0.00,60.00,Thursday
281,20.00000009107707
282,10.208764985361931
283,7.219468641525983
2,11, 1,11, 0,17, 0.00,60.00,Thursday
281,20.000000001398683
282,8.51275750100873
283,7.015897288210815
2,11, 1,11, 0,18, 0.00,60.00,Thursday
281,20.00000000002587
282,7.896994288425369
283,6.968492485483921
2,11, 1,11, 0,19, 0.00,60.00,Thursday
281,20.000000000000509
282,7.235044827759839
283,6.838204390187713
2,11, 1,11, 0,20, 0.00,60.00,Thursday
281,20.000000000000044
282,5.640923976076564
283,6.395891587751782
2,11, 1,11, 0,21, 0.00,60.00,Thursday
281,20.000000000000044
282,4.431912952160054
283,5.999144674912168
2,11, 1,11, 0,22, 0.00,60.00,Thursday
281,20.000000000000055
282,5.995262461961593
283,6.376559528943973
2,11, 1,11, 0,23, 0.00,60.00,Thursday
281,20.000000000000005
282,4.414428098201336
283,5.935551169893337
2,11, 1,11, 0,24, 0.00,60.00,Thursday
281,20.000000000000087
282,3.8868457925900214
283,5.655298700945299
2,12, 1,12, 0, 1, 0.00,60.00,Friday
281,20.000000000000197
282,2.8252764001371397
283,5.354598587038376
2,12, 1,12, 0, 2, 0.00,60.00,Friday
281,20.00000000000006