Program Version,EnergyPlus, Version 9.1.0-fafb9d5652, YMD=2019.09.26 13:40
1,5,Environment Title[],Latitude[deg],Longitude[deg],Time Zone[],Elevation[m]
2,8,Day of Simulation[],Month[],Day of Month[],DST Indicator[1=yes 0=no],Hour[],StartMinute[],EndMinute[],DayType
3,5,Cumulative Day of Simulation[],Month[],Day of Month[],DST Indicator[1=yes 0=no],DayType  ! When Daily Report Variables Requested
4,2,Cumulative Days of Simulation[],Month[]  ! When Monthly Report Variables Requested
5,1,Cumulative Days of Simulation[] ! When Run Period Report Variables Requested
6,1,Calendar Year of Simulation[] ! When Annual Report Variables Requested
276,11,EMS,central ac supply fan Cooling [J] !RunPeriod [Value,Min,Month,Day,Hour,Minute,Max,Month,Day,Hour,Minute]
277,11,EMS,furnace supply fan Heating [J] !RunPeriod [Value,Min,Month,Day,Hour,Minute,Max,Month,Day,Hour,Minute]
278,11,EMS,water heater EC adjustment [J] !RunPeriod [Value,Min,Month,Day,Hour,Minute,Max,Month,Day,Hour,Minute]
279,1,LIVING,Zone Mean Air Temperature [C] !Hourly
280,1,VENTED ATTIC,Zone Mean Air Temperature [C] !Hourly
281,1,VENTED CRAWLSPACE,Zone Mean Air Temperature [C] !Hourly
583,11,CENTRAL AC CLG COIL,Cooling Coil Electric Energy [J] !RunPeriod [Value,Min,Month,Day,Hour,Minute,Max,Month,Day,Hour,Minute]
609,11,FURNACE HTG COIL,Heating Coil Gas Energy [J] !RunPeriod [Value,Min,Month,Day,Hour,Minute,Max,Month,Day,Hour,Minute]
874,11,WATER USE CONNECTIONS 1,Water Use Connections Plant Hot Water Energy [J] !RunPeriod [Value,Min,Month,Day,Hour,Minute,Max,Month,Day,Hour,Minute]
925,11,WATER HEATER,Water Heater Electric Energy [J] !RunPeriod [Value,Min,Month,Day,Hour,Minute,Max,Month,Day,Hour,Minute]
963,11,WATER HEATER,Water Heater Off Cycle Parasitic Electric Energy [J] !RunPeriod [Value,Min,Month,Day,Hour,Minute,Max,Month,Day,Hour,Minute]
965,11,WATER HEATER,Water Heater On Cycle Parasitic Electric Energy [J] !RunPeriod [Value,Min,Month,Day,Hour,Minute,Max,Month,Day,Hour,Minute]
1128,11,CENTRAL AC CLG COIL,Cooling Coil Crankcase Heater Electric Energy [J] !RunPeriod [Value,Min,Month,Day,Hour,Minute,Max,Month,Day,Hour,Minute]
End of Data Dictionary
1,RUN PERIOD 1,  39.83,-104.65,  -7.00,1650.00
2,1, 1, 1, 0, 1, 0.00,60.00,Monday
279,20.000000000000005
280,-13.315970082745155
281,10.819291465399675
2,1, 1, 1, 0, 2, 0.00,60.00,Monday
279,20.00000000000017
280,-13.624511810559099
281,9.875532800357469
2,1, 1, 1, 0, 3, 0.00,60.00,Monday
279,19.99999999999976
280,-13.914098976290214
281,9.27147858972352
2,1, 1, 1, 0, 4, 0.00,60.00,Monday
279,20.000000000000204
280,-14.908166227871489
281,8.728809713160726
2,1, 1, 1, 0, 5, 0.00,60.00,Monday
279,20.000000000000179
280,-14.996146145721872
281,8.344456968648894
2,1, 1, 1, 0, 6, 0.00,60.00,Monday
279,20.000000000000065
280,-14.187832169845067
281,8.155271379932158
2,1, 1, 1, 0, 7, 0.00,60.00,Monday
279,20.00000000000001
280,-13.247864868840983
281,7.963424807452783
2,1, 1, 1, 0, 8, 0.00,60.00,Monday
279,20.000000000000026
280,-8.85786512481523
281,7.92423513452991
2,1, 1, 1, 0, 9, 0.00,60.00,Monday
279,19.99999999999996
280,-6.977225278987723
281,7.933170434069457
2,1, 1, 1, 0,10, 0.00,60.00,Monday
279,20.00000000000013
280,-3.207293905698849
281,8.34085729883385
2,1, 1, 1, 0,11, 0.00,60.00,Monday
279,20.0000000000001
280,0.36678494942290276
281,8.897730826762628
2,1, 1, 1, 0,12, 0.00,60.00,Monday
279,20.00000000000009
280,2.527433137766991
281,9.217961657367506
2,1, 1, 1, 0,13, 0.00,60.00,Monday
279,19.99999999999999
280,4.272740532231586
281,9.591403375815144
2,1, 1, 1, 0,14, 0.00,60.00,Monday
279,20.00000000000009
280,3.287358644441676
281,9.53350081533938
2,1, 1, 1, 0,15, 0.00,60.00,Monday
279,20.000000000000005
280,3.859124175709883
281,9.695658596249434
2,1, 1, 1, 0,16, 0.00,60.00,Monday
279,20.000000000000026
280,2.2042609133281436
281,9.453208275030877
2,1, 1, 1, 0,17, 0.00,60.00,Monday
279,19.999999999999905
280,-0.4286475643383278
281,8.909176029737063
2,1, 1, 1, 0,18, 0.00,60.00,Monday
279,19.999999999999994
280,-2.1179205830480725
281,8.497846669941211
2,1, 1, 1, 0,19, 0.00,60.00,Monday
279,20.000000000000179
280,-4.853496464130334
281,7.835058539129317
2,1, 1, 1, 0,20, 0.00,60.00,Monday
279,19.999999999999976
280,-5.528614060009352
281,7.4839687027679029
2,1, 1, 1, 0,21, 0.00,60.00,Monday
279,20.0
280,-5.9915051848976479
281,7.1611126146056149
2,1, 1, 1, 0,22, 0.00,60.00,Monday
279,19.99999999999987
280,-6.143447604377278
281,6.908939503870266
2,1, 1, 1, 0,23, 0.00,60.00,Monday
279,19.99999999999984
280,-6.168872540371278
281,6.670184762835391
2,1, 1, 1, 0,24, 0.00,60.00,Monday
279,20.000000000000108
280,-5.078330418036078
281,6.631363616880627
2,2, 1, 2, 0, 1, 0.00,60.00,Tuesday
279,19.99999999999996
280,-5.052986665043278
281,6.441197336036503
2,2, 1, 2, 0, 2, 0.00,60.00,Tuesday
279,20.000000000000079
280,-5.62627544808834
281,6.146005162282746
2,2, 1, 2, 0, 3, 0.00,60.00,Tuesday
279,20.000000000000005
280,-5.057044682343714
281,6.047313807638213
2,2, 1, 2, 0, 4, 0.00,60.00,Tuesday
279,19.99999999999973
280,-6.690189115817996
281,5.596235109772145
2,2, 1, 2, 0, 5, 0.00,60.00,Tuesday
279,20.0
280,-5.682664554891923
281,5.549788050534602
2,2, 1, 2, 0, 6, 0.00,60.00,Tuesday
279,19.999999999999834
280,-6.18525791420821
281,5.3209719745332439
2,2, 1, 2, 0, 7, 0.00,60.00,Tuesday
279,20.000000000000087
280,-4.65837336047867
281,5.4194151142393889
2,2, 1, 2, 0, 8, 0.00,60.00,Tuesday
279,19.999999999999948
280,-3.4299245425506905
281,5.574453771128269
2,2, 1, 2, 0, 9, 0.00,60.00,Tuesday
279,20.000000000000065
280,-2.158034147568431
281,5.694945388773568
2,2, 1, 2, 0,10, 0.00,60.00,Tuesday
279,20.0
280,1.498797079374732
281,6.342509590792347
2,2, 1, 2, 0,11, 0.00,60.00,Tuesday
279,20.00000000000011
280,4.901778404163922
281,7.111691612886376
2,2, 1, 2, 0,12, 0.00,60.00,Tuesday
279,20.00000000000002
280,8.089397464360238
281,7.998927179710113
2,2, 1, 2, 0,13, 0.00,60.00,Tuesday
279,19.999999999999994
280,9.069511319942267
281,8.48763686248629
2,2, 1, 2, 0,14, 0.00,60.00,Tuesday
279,20.000000000000094
280,9.3341600138955
281,8.792970688472668
2,2, 1, 2, 0,15, 0.00,60.00,Tuesday
279,20.000000000000005
280,9.962302547236663
281,9.212023380962265
2,2, 1, 2, 0,16, 0.00,60.00,Tuesday
279,20.000000000000087
280,7.881839170986015
281,8.93261420049486
2,2, 1, 2, 0,17, 0.00,60.00,Tuesday
279,20.00000000000005
280,6.7962125236943689
281,8.812735943617927
2,2, 1, 2, 0,18, 0.00,60.00,Tuesday
279,20.0
280,5.083182426759382
281,8.515825854658117
2,2, 1, 2, 0,19, 0.00,60.00,Tuesday
279,20.00000000000002
280,1.331525943072733
281,7.6743961959706479
2,2, 1, 2, 0,20, 0.00,60.00,Tuesday
279,20.000000000000076
280,0.13382285235790304
281,7.346148696077706
2,2, 1, 2, 0,21, 0.00,60.00,Tuesday
279,20.000000000000119
280,-1.5786943261521347
281,6.901834327184792
2,2, 1, 2, 0,22, 0.00,60.00,Tuesday
279,19.999999999999948
280,-1.135617124756868
281,6.847509534715605
2,2, 1, 2, 0,23, 0.00,60.00,Tuesday
279,20.000000000000129
280,-1.5537271211464359
281,7.024837557845797
2,2, 1, 2, 0,24, 0.00,60.00,Tuesday
279,19.999999999999895
280,-0.3465931662546775
281,6.8322289887428859
2,3, 1, 3, 0, 1, 0.00,60.00,Wednesday
279,20.000000000000047
280,-0.7610728686873128
281,6.60646692435395
2,3, 1, 3, 0, 2, 0.00,60.00,Wednesday
279,20.0
280,-0.7173257265127678
281,6.489668196000959
2,3, 1, 3, 0, 3, 0.00,60.00,Wednesday
279,20.00000000000016
280,-1.1818296693649169
281,6.284936912154251
2,3, 1, 3, 0, 4, 0.00,60.00,Wednesday
279,20.00000000000016
280,-1.755713696485415
281,6.047342076330302
2,3, 1, 3, 0, 5, 0.00,60.00,Wednesday
279,20.000000000000115
280,-1.766239526694149
281,5.906700414692562
2,3, 1, 3, 0, 6, 0.00,60.00,Wednesday
279,20.000000000000115
280,-1.1849044324993033
281,5.88874743859235
2,3, 1, 3, 0, 7, 0.00,60.00,Wednesday
279,20.00000000000012
280,-1.1815235904892583
281,5.784847266260291
2,3, 1, 3, 0, 8, 0.00,60.00,Wednesday
279,19.99999999999988
280,-0.6833318373297668
281,5.770896733901837
2,3, 1, 3, 0, 9, 0.00,60.00,Wednesday
279,20.000000000000108
280,3.0304117450265495
281,6.387286988616909
2,3, 1, 3, 0,10, 0.00,60.00,Wednesday
279,19.99999999999995
280,5.3292532740296949
281,6.915041042972813
2,3, 1, 3, 0,11, 0.00,60.00,Wednesday
279,19.999999999999998
280,5.671535236069715
281,7.176327789121042
2,3, 1, 3, 0,12, 0.00,60.00,Wednesday
279,19.999999999999984
280,6.603221541559163
281,7.489186106186244
2,3, 1, 3, 0,13, 0.00,60.00,Wednesday
279,20.000000000000055
280,5.581653081940756
281,7.478486706022178
2,3, 1, 3, 0,14, 0.00,60.00,Wednesday
279,20.000000000000015
280,4.583416750252915
281,7.406807507108471
2,3, 1, 3, 0,15, 0.00,60.00,Wednesday
279,20.00000000000007
280,2.3590757039755316
281,6.997465233918109
2,3, 1, 3, 0,16, 0.00,60.00,Wednesday
279,20.000000000000207
280,-0.16135637652276042
281,6.493575050571004
2,3, 1, 3, 0,17, 0.00,60.00,Wednesday
279,19.99999999999998
280,-2.740700824048343
281,5.927063984548732
2,3, 1, 3, 0,18, 0.00,60.00,Wednesday
279,20.00000000000017
280,-5.351764097918024
281,5.277896791753768
2,3, 1, 3, 0,19, 0.00,60.00,Wednesday
279,20.000000000000147
280,-5.380682283115661
281,5.098308803691883
2,3, 1, 3, 0,20, 0.00,60.00,Wednesday
279,20.000000000000154
280,-6.394355145101782
281,4.625406224889597
2,3, 1, 3, 0,21, 0.00,60.00,Wednesday
279,20.000000000000033
280,-8.235651506479485
281,4.122820059783043
2,3, 1, 3, 0,22, 0.00,60.00,Wednesday
279,19.999999999999916
280,-9.628798061893815
281,3.6927406741816317
2,3, 1, 3, 0,23, 0.00,60.00,Wednesday
279,20.000000000000019
280,-11.07266936396155
281,3.1893698470607227
2,3, 1, 3, 0,24, 0.00,60.00,Wednesday
279,20.000000000000179
280,-12.148045865861395
281,2.772171555945581
2,4, 1, 4, 0, 1, 0.00,60.00,Thursday
279,19.999999999999898
280,-12.435393106243279
281,2.328582422765926
2,4, 1, 4, 0, 2, 0.00,60.00,Thursday
279,20.000000000000285
280,-13.955509502188902
281,1.6035651200293202
2,4, 1, 4, 0, 3, 0.00,60.00,Thursday
279,20.000000000000005
280,-15.80592675015303
281,1.288035093066757
2,4, 1, 4, 0, 4, 0.00,60.00,Thursday
279,20.000000000000044
280,-14.732523903894148
281,1.2548167727429534
2,4, 1, 4, 0, 5, 0.00,60.00,Thursday
279,19.999999999999909
280,-14.40448816433585
281,1.0925862833493028
2,4, 1, 4, 0, 6, 0.00,60.00,Thursday
279,20.000000000000463
280,-13.693028925111643
281,1.0260416363716157
2,4, 1, 4, 0, 7, 0.00,60.00,Thursday
279,19.999999999999976
280,-14.440178295941854
281,1.0895787438435639
2,4, 1, 4, 0, 8, 0.00,60.00,Thursday
279,20.000000000000037
280,-13.097267653000955
281,1.3987814866653006
2,4, 1, 4, 0, 9, 0.00,60.00,Thursday
279,20.000000000000193
280,-10.672726194575706
281,1.8696923693203405
2,4, 1, 4, 0,10, 0.00,60.00,Thursday
279,19.999999999999877
280,-2.568213747097857
281,2.808521886053446
2,4, 1, 4, 0,11, 0.00,60.00,Thursday
279,19.999999999999898
280,1.9343696305377328
281,3.6881343362156056
2,4, 1, 4, 0,12, 0.00,60.00,Thursday
279,19.999999999999976
280,2.0744133520913086
281,4.056352586700491
2,4, 1, 4, 0,13, 0.00,60.00,Thursday
279,19.999999999999923
280,7.699396512103102
281,5.09503453652474
2,4, 1, 4, 0,14, 0.00,60.00,Thursday
279,19.999999999999916
280,9.407899227938053
281,5.8760922630102059
2,4, 1, 4, 0,15, 0.00,60.00,Thursday
279,20.000000000000165
280,10.89076469036983
281,6.523741842535135
2,4, 1, 4, 0,16, 0.00,60.00,Thursday
279,20.000000000000104
280,9.964305229756686
281,6.694532393494494
2,4, 1, 4, 0,17, 0.00,60.00,Thursday
279,20.00000000000018
280,7.95732417961809
281,6.346124758833342
2,4, 1, 4, 0,18, 0.00,60.00,Thursday
279,20.000000000000019
280,7.177525086861763
281,6.390817990537324
2,4, 1, 4, 0,19, 0.00,60.00,Thursday
279,20.000000000000115
280,6.091139415109291
281,6.267975212883662
2,4, 1, 4, 0,20, 0.00,60.00,Thursday
279,19.999999999999998
280,6.995442328993647
281,6.5667639216958639
2,4, 1, 4, 0,21, 0.00,60.00,Thursday
279,20.000000000000079
280,6.030498271181362
281,6.418694452026814
2,4, 1, 4, 0,22, 0.00,60.00,Thursday
279,19.99999999999992
280,5.4990500056347229
281,6.324592289441999
2,4, 1, 4, 0,23, 0.00,60.00,Thursday
279,20.0
280,4.905925932078946
281,6.224146862973506
2,4, 1, 4, 0,24, 0.00,60.00,Thursday
279,20.000000000000076
280,9.744881638134736
281,7.293390612466317
2,5, 1, 5, 0, 1, 0.00,60.00,Friday
279,20.000000000000108
280,5.136800378930213
281,6.500373235295801
2,5, 1, 5, 0, 2, 0.00,60.00,Friday
279,20.000000000000165
280,10.298874646780473
281,7.522080109221984
2,5, 1, 5, 0, 3, 0.00,60.00,Friday
279,19.999999999999994
280,10.892759149558899
281,8.058487737693007
2,5, 1, 5, 0, 4, 0.00,60.00,Friday
279,20.000000000000044
280,9.308132238892745
281,7.826814504507059
2,5, 1, 5, 0, 5, 0.00,60.00,Friday
279,20.000000000000047
280,9.249829581374295
281,7.819816459331918
2,5, 1, 5, 0, 6, 0.00,60.00,Friday
279,20.000000000000087
280,9.26301770805583
281,7.923033414274656
2,5, 1, 5, 0, 7, 0.00,60.00,Friday
279,19.999999999999937
280,5.1138314426623279
281,6.5988444737395179
2,5, 1, 5, 0, 8, 0.00,60.00,Friday
279,20.000000000000033
280,9.06875995699681
281,7.741459866193341
2,5, 1, 5, 0, 9, 0.00,60.00,Friday
279,20.000000000000044
280,8.730036585321772
281,7.99034528893573
2,5, 1, 5, 0,10, 0.00,60.00,Friday
279,20.050932764011546
280,12.436243040189444
281,9.189356373334987
2,5, 1, 5, 0,11, 0.00,60.00,Friday
279,20.032255557007326
280,12.628170118181274
281,9.3713505386738
2,5, 1, 5, 0,12, 0.00,60.00,Friday
279,20.65087333673413
280,14.75892987571098
281,10.0585446363654
2,5, 1, 5, 0,13, 0.00,60.00,Friday
279,21.02165531950982
280,14.297155284631895
281,10.29114638198493
2,5, 1, 5, 0,14, 0.00,60.00,Friday
279,21.151365233193056
280,12.804550666867849
281,10.283017815368267
2,5, 1, 5, 0,15, 0.00,60.00,Friday
279,21.06585131304978
280,10.139183131902934
281,9.955839460835179
2,5, 1, 5, 0,16, 0.00,60.00,Friday
279,20.940656347544328
280,8.543360211494229
281,9.555123541762468
2,5, 1, 5, 0,17, 0.00,60.00,Friday
279,20.417467376807687
280,5.907968717193746
281,8.90543133617855
2,5, 1, 5, 0,18, 0.00,60.00,Friday
279,20.084398928612275
280,5.658470919085656
281,8.780133376264946
2,5, 1, 5, 0,19, 0.00,60.00,Friday
279,20.000644753107787
280,3.976658205467496
281,8.25439280445104
2,5, 1, 5, 0,20, 0.00,60.00,Friday
279,20.000010636387115
280,3.3208342204941805
281,7.936887347097211
2,5, 1, 5, 0,21, 0.00,60.00,Friday
279,20.0000003371898
280,1.7580978882679755
281,7.425159794806461
2,5, 1, 5, 0,22, 0.00,60.00,Friday
279,20.000000014768017
280,0.19439560061449238
281,6.898216220342319
2,5, 1, 5, 0,23, 0.00,60.00,Friday
279,20.0000000007639
280,0.5830656172744229
281,6.790397518546838
2,5, 1, 5, 0,24, 0.00,60.00,Friday
279,20.000000000041525
280,-0.04945079358726458
281,6.505774483894644
2,6, 1, 6, 0, 1, 0.00,60.00,Saturday
279,20.000000000002435
280,-0.06503185739476496
281,6.313865976244348
2,6, 1, 6, 0, 2, 0.00,60.00,Saturday
279,20.000000000000207
280,0.9648751884145552
281,6.361753604169265
2,6, 1, 6, 0, 3, 0.00,60.00,Saturday
279,20.000000000000168
280,0.5184815052509245
281,6.15345904530015
2,6, 1, 6, 0, 4, 0.00,60.00,Saturday
279,20.000000000000143
280,-0.035395876568007588
281,5.907329283949982
2,6, 1, 6, 0, 5, 0.00,60.00,Saturday
279,20.00000000000001
280,-0.647450478040314
281,5.667336189419956
2,6, 1, 6, 0, 6, 0.00,60.00,Saturday
279,20.00000000000003
280,-0.1637262573616355
281,5.65875705524504
2,6, 1, 6, 0, 7, 0.00,60.00,Saturday
279,19.999999999999888
280,-0.6917179467217087
281,5.443947633896452
2,6, 1, 6, 0, 8, 0.00,60.00,Saturday
279,20.00000000000013
280,-0.6826305327362483
281,5.316587245917785
2,6, 1, 6, 0, 9, 0.00,60.00,Saturday
279,19.99999999999996
280,-0.675756653963001
281,5.227109097243577
2,6, 1, 6, 0,10, 0.00,60.00,Saturday
279,19.999999999999998
280,-0.07814679609801631
281,5.28149649393605
2,6, 1, 6, 0,11, 0.00,60.00,Saturday
279,20.000000000000069
280,-0.0633347429892666
281,5.277963366583441
2,6, 1, 6, 0,12, 0.00,60.00,Saturday
279,20.000000000000005
280,0.9989899793952555
281,5.499095738180912
2,6, 1, 6, 0,13, 0.00,60.00,Saturday
279,20.000000000000076
280,1.6478640865612635
281,5.701811344978322
2,6, 1, 6, 0,14, 0.00,60.00,Saturday
279,20.000000000000005
280,1.0782110679218236
281,5.685582759608226
2,6, 1, 6, 0,15, 0.00,60.00,Saturday
279,20.000000000000047
280,1.6588169069417136
281,5.879246265041678
2,6, 1, 6, 0,16, 0.00,60.00,Saturday
279,20.00000000000002
280,0.5887215489873162
281,5.760098949030545
2,6, 1, 6, 0,17, 0.00,60.00,Saturday
279,20.0
280,-0.5956538030040811
281,5.531419603584911
2,6, 1, 6, 0,18, 0.00,60.00,Saturday
279,20.0
280,-1.6704744122615725
281,5.265764883879367
2,6, 1, 6, 0,19, 0.00,60.00,Saturday
279,20.0
280,-3.2266912312599715
281,4.850171244216541
2,6, 1, 6, 0,20, 0.00,60.00,Saturday
279,20.0
280,-4.3552602426610689
281,4.482908995066691
2,6, 1, 6, 0,21, 0.00,60.00,Saturday
279,20.00000000000001
280,-5.817771864352464
281,3.9925425961853255
2,6, 1, 6, 0,22, 0.00,60.00,Saturday
279,19.9999999999999
280,-7.593986038210988
281,3.477492641495422
2,6, 1, 6, 0,23, 0.00,60.00,Saturday
279,20.000000000000165
280,-7.7019487320629749
281,3.2412712910581744
2,6, 1, 6, 0,24, 0.00,60.00,Saturday
279,20.000000000000204
280,-8.78435259602571
281,2.8434755606091395
2,7, 1, 7, 0, 1, 0.00,60.00,Sunday
279,20.000000000000207
280,-8.871203778266283
281,2.6295849099750709
2,7, 1, 7, 0, 2, 0.00,60.00,Sunday
279,20.000000000000197
280,-8.332986788675298
281,2.5497317780720349
2,7, 1, 7, 0, 3, 0.00,60.00,Sunday
279,20.000000000000108
280,-10.47066054317062
281,1.9801322771328048
2,7, 1, 7, 0, 4, 0.00,60.00,Sunday
279,20.000000000000015
280,-11.821602862682492
281,1.4804930502017213
2,7, 1, 7, 0, 5, 0.00,60.00,Sunday
279,20.000000000000108
280,-11.996985322650345
281,0.9500532935402262
2,7, 1, 7, 0, 6, 0.00,60.00,Sunday
279,19.999999999999937
280,-12.738763703364329
281,0.8814301573015487
2,7, 1, 7, 0, 7, 0.00,60.00,Sunday
279,19.999999999999994
280,-12.777218550300347
281,0.678508341438288
2,7, 1, 7, 0, 8, 0.00,60.00,Sunday
279,20.00000000000017
280,-3.569576818165022
281,2.103587628987387
2,7, 1, 7, 0, 9, 0.00,60.00,Sunday
279,20.000000000000346
280,-1.1524873570024495
281,2.6550113760079148
2,7, 1, 7, 0,10, 0.00,60.00,Sunday
279,20.00000000000018
280,0.21853092313273193
281,3.028280162353686
2,7, 1, 7, 0,11, 0.00,60.00,Sunday
279,19.999999999999873
280,2.1590559860835767
281,3.4838971610746114
2,7, 1, 7, 0,12, 0.00,60.00,Sunday
279,20.00000000000012
280,4.562854077370744
281,4.085382408389294
2,7, 1, 7, 0,13, 0.00,60.00,Sunday
279,20.000000000000008
280,5.401916781912723
281,4.4503132138465999
2,7, 1, 7, 0,14, 0.00,60.00,Sunday
279,19.999999999999937
280,5.013623297088585
281,4.515077882177529
2,7, 1, 7, 0,15, 0.00,60.00,Sunday
279,20.00000000000005
280,4.991141692145063
281,4.667815043870081
2,7, 1, 7, 0,16, 0.00,60.00,Sunday
279,20.00000000000012
280,4.450121924402454
281,4.6841484020637849
2,7, 1, 7, 0,17, 0.00,60.00,Sunday
279,20.000000000000047
280,4.9430198317095759
281,4.905759898933262
2,7, 1, 7, 0,18, 0.00,60.00,Sunday
279,20.00000000000009
280,5.515008854054506
281,5.158008404559571
2,7, 1, 7, 0,19, 0.00,60.00,Sunday
279,20.000000000000008
280,4.932772694280652
281,5.122367403581287
2,7, 1, 7, 0,20, 0.00,60.00,Sunday
279,20.000000000000005
280,4.349501912534818
281,5.043483800285037
2,7, 1, 7, 0,21, 0.00,60.00,Sunday
279,20.000000000000033
280,2.235356861555032
281,4.602973951473087
2,7, 1, 7, 0,22, 0.00,60.00,Sunday
279,20.000000000000044
280,-0.4244939104025457
281,4.012209332186934
2,7, 1, 7, 0,23, 0.00,60.00,Sunday
279,20.00000000000008
280,-0.019675143524530076
281,4.049134519816295
2,7, 1, 7, 0,24, 0.00,60.00,Sunday
279,20.00000000000002
280,1.547497445446156
281,4.339045174170819
2,8, 1, 8, 0, 1, 0.00,60.00,Monday
279,20.000000000000005
280,1.6082139115249348
281,4.337493819802626
2,8, 1, 8, 0, 2, 0.00,60.00,Monday
279,19.999999999999898
280,1.0532353515691575
281,4.196707225618251
2,8, 1, 8, 0, 3, 0.00,60.00,Monday
279,20.000000000000285
280,-0.5623087253215849
281,3.8371754996830966
2,8, 1, 8, 0, 4, 0.00,60.00,Monday
279,19.999999999999976
280,-1.6873013475887944
281,3.559343598969227
2,8, 1, 8, 0, 5, 0.00,60.00,Monday
279,20.000000000000168
280,-3.2540744723127266
281,3.172523350174763
2,8, 1, 8, 0, 6, 0.00,60.00,Monday
279,20.00000000000001
280,-3.283192231225421
281,3.0515927037621748
2,8, 1, 8, 0, 7, 0.00,60.00,Monday
279,20.00000000000008
280,-4.364476538114122
281,2.747794315919253
2,8, 1, 8, 0, 8, 0.00,60.00,Monday
279,20.000000000000005
280,-2.9058907549357886
281,2.904437990503368
2,8, 1, 8, 0, 9, 0.00,60.00,Monday
279,20.0
280,1.962091033897542
281,3.7788937437071596
2,8, 1, 8, 0,10, 0.00,60.00,Monday
279,20.000000000000069
280,4.644763485015566
281,4.553719419604862
2,8, 1, 8, 0,11, 0.00,60.00,Monday
279,20.000000000000047
280,6.962764246488905
281,5.350921264393657
2,8, 1, 8, 0,12, 0.00,60.00,Monday
279,19.999999999999998
280,7.665829941443787
281,5.961288997560377
2,8, 1, 8, 0,13, 0.00,60.00,Monday
279,20.000000000000005
280,10.4268498428621
281,6.9891273282101828
2,8, 1, 8, 0,14, 0.00,60.00,Monday
279,20.085048141553729
280,10.467621476654174
281,7.327840627276234
2,8, 1, 8, 0,15, 0.00,60.00,Monday
279,20.180447106515485
280,7.831821463567752
281,7.056979167230336
2,8, 1, 8, 0,16, 0.00,60.00,Monday
279,20.266858211904024
280,6.727442393296829
281,6.887120186301403
2,8, 1, 8, 0,17, 0.00,60.00,Monday
279,20.00235024985763
280,4.500722881521872
281,6.464831438513178
2,8, 1, 8, 0,18, 0.00,60.00,Monday
279,20.000081094974015
280,0.8558744378700424
281,5.441903991414105
2,8, 1, 8, 0,19, 0.00,60.00,Monday
279,20.000004093961655
280,-0.48515259465776036
281,5.179644653288434
2,8, 1, 8, 0,20, 0.00,60.00,Monday
279,20.000000233291247
280,-1.6291695609001378
281,4.832224528319523
2,8, 1, 8, 0,21, 0.00,60.00,Monday
279,20.000000012460896
280,-1.11761451541214
281,4.753341935488524
2,8, 1, 8, 0,22, 0.00,60.00,Monday
279,20.000000000744575
280,-2.17786597896196
281,4.395467440641746
2,8, 1, 8, 0,23, 0.00,60.00,Monday
279,20.00000000004477
280,-1.741398376847605
281,4.3147290348914819
2,8, 1, 8, 0,24, 0.00,60.00,Monday
279,20.000000000003085
280,-2.794767387220465
281,3.975546074761617
2,9, 1, 9, 0, 1, 0.00,60.00,Tuesday
279,20.000000000000385
280,-3.3063212215903459
281,3.721339070290108
2,9, 1, 9, 0, 2, 0.00,60.00,Tuesday
279,19.999999999999927
280,-3.333426063145854
281,3.574501086396307
2,9, 1, 9, 0, 3, 0.00,60.00,Tuesday
279,19.999999999999998
280,-3.3496296035393509
281,3.445494533239265
2,9, 1, 9, 0, 4, 0.00,60.00,Tuesday
279,20.000000000000165
280,-3.358378593264034
281,3.3237319741672506
2,9, 1, 9, 0, 5, 0.00,60.00,Tuesday
279,20.000000000000186
280,-3.936435706649253
281,3.094519913238021
2,9, 1, 9, 0, 6, 0.00,60.00,Tuesday
279,20.00000000000003
280,-3.387598241584804
281,3.0730069236975714
2,9, 1, 9, 0, 7, 0.00,60.00,Tuesday
279,20.00000000000004
280,-5.1564302582844159
281,2.665960787906243
2,9, 1, 9, 0, 8, 0.00,60.00,Tuesday
279,19.999999999999909
280,-1.6651679270145119
281,3.207147219616534
2,9, 1, 9, 0, 9, 0.00,60.00,Tuesday
279,19.999999999999969
280,0.05180735535568836
281,3.573865285706468
2,9, 1, 9, 0,10, 0.00,60.00,Tuesday
279,20.000000000000019
280,2.437187110143313
281,4.076719193064845
2,9, 1, 9, 0,11, 0.00,60.00,Tuesday
279,20.0
280,3.659057037635274
281,4.510579880380438
2,9, 1, 9, 0,12, 0.00,60.00,Tuesday
279,20.000000000000015
280,3.2184194694166514
281,4.598558714371384
2,9, 1, 9, 0,13, 0.00,60.00,Tuesday
279,20.00000000000008
280,3.2530300114050667
281,4.743880650665019
2,9, 1, 9, 0,14, 0.00,60.00,Tuesday
279,20.0
280,3.8479111008267519
281,5.062921319900549
2,9, 1, 9, 0,15, 0.00,60.00,Tuesday
279,20.000000000000033
280,4.331660972235159
281,5.4075007955756109
2,9, 1, 9, 0,16, 0.00,60.00,Tuesday
279,20.00000000000002
280,3.8518673772478979
281,5.501613592176348
2,9, 1, 9, 0,17, 0.00,60.00,Tuesday
279,20.000000000000058
280,2.782408966488971
281,5.3377813086479979
2,9, 1, 9, 0,18, 0.00,60.00,Tuesday
279,20.000000000000108
280,1.1394679153182368
281,4.96120819683934
2,9, 1, 9, 0,19, 0.00,60.00,Tuesday
279,20.00000000000011
280,0.02604199604710591
281,4.695681818806922
2,9, 1, 9, 0,20, 0.00,60.00,Tuesday
279,20.000000000000044
280,0.5233404520842051
281,4.723319259614629
2,9, 1, 9, 0,21, 0.00,60.00,Tuesday
279,20.000000000000126
280,-1.6780155432055182
281,4.175084118739924
2,9, 1, 9, 0,22, 0.00,60.00,Tuesday
279,19.999999999999987
280,-1.7203235255163359
281,4.028641605534851
2,9, 1, 9, 0,23, 0.00,60.00,Tuesday
279,20.000000000000008
280,-2.792649232606345
281,3.703216533633465
2,9, 1, 9, 0,24, 0.00,60.00,Tuesday
279,20.000000000000108
280,-4.357519853781543
281,3.2497611597548134
2,10, 1,10, 0, 1, 0.00,60.00,Wednesday
279,20.000000000000175
280,-4.406173755558644
281,3.0825344746070479
2,10, 1,10, 0, 2, 0.00,60.00,Wednesday
279,19.999999999999937
280,-5.010436913078749
281,2.82691909680764
2,10, 1,10, 0, 3, 0.00,60.00,Wednesday
279,20.000000000000179
280,-5.050230646017696
281,2.6768822946807666
2,10, 1,10, 0, 4, 0.00,60.00,Wednesday
279,20.000000000000154
280,-5.629339350983538
281,2.432106576154433
2,10, 1,10, 0, 5, 0.00,60.00,Wednesday
279,20.0000000000002
280,-6.123692740689555
281,2.1921512248819816
2,10, 1,10, 0, 6, 0.00,60.00,Wednesday
279,19.999999999999927
280,-6.7151708896065849
281,1.9364772831002029
2,10, 1,10, 0, 7, 0.00,60.00,Wednesday
279,19.999999999999898
280,-5.742118790483526
281,1.9743173712471154
2,10, 1,10, 0, 8, 0.00,60.00,Wednesday
279,20.0000000000001
280,-5.118924606857275
281,1.9797981861001879
2,10, 1,10, 0, 9, 0.00,60.00,Wednesday
279,20.0000000000001
280,-1.9285077921414978
281,2.4994518746233247
2,10, 1,10, 0,10, 0.00,60.00,Wednesday
279,19.999999999999895
280,1.362664686501183
281,3.231030168912899
2,10, 1,10, 0,11, 0.00,60.00,Wednesday
279,20.000000000000154
280,4.046364481970383
281,4.014795228627127
2,10, 1,10, 0,12, 0.00,60.00,Wednesday
279,19.999999999999976
280,5.718595334009846
281,4.7759410532879908
2,10, 1,10, 0,13, 0.00,60.00,Wednesday
279,20.000000000000005
280,6.530671968484767
281,5.659774997824762
2,10, 1,10, 0,14, 0.00,60.00,Wednesday
279,20.00000000000002
280,6.847346090614459
281,5.940338321763516
2,10, 1,10, 0,15, 0.00,60.00,Wednesday
279,19.999999999999998
280,5.117109660145466
281,6.080874514150505
2,10, 1,10, 0,16, 0.00,60.00,Wednesday
279,20.008494472259235
280,5.875101791049758
281,6.1667805672089639
2,10, 1,10, 0,17, 0.00,60.00,Wednesday
279,20.00014179314358
280,3.3692399145586124
281,5.616188435099665
2,10, 1,10, 0,18, 0.00,60.00,Wednesday
279,20.00000541563243
280,0.7639446073997055
281,4.893648264128931
2,10, 1,10, 0,19, 0.00,60.00,Wednesday
279,20.000000287738187
280,-0.9858692040675223
281,4.535800606049804
2,10, 1,10, 0,20, 0.00,60.00,Wednesday
279,20.00000001519536
280,-2.123224420417752
281,4.194424891053462
2,10, 1,10, 0,21, 0.00,60.00,Wednesday
279,20.00000000082835
280,-1.2211161097954549
281,4.23264722021778
2,10, 1,10, 0,22, 0.00,60.00,Wednesday
279,20.00000000005314
280,-3.3012013954941934
281,3.6792333656539144
2,10, 1,10, 0,23, 0.00,60.00,Wednesday
279,20.000000000003746
280,-4.353385231027234
281,3.282224685738317
2,10, 1,10, 0,24, 0.00,60.00,Wednesday
279,20.000000000000349
280,-5.003070845417968
281,3.0007340510597499
2,11, 1,11, 0, 1, 0.00,60.00,Thursday
279,20.00000000000003
280,-5.600625053765055
281,2.701947029989654
2,11, 1,11, 0, 2, 0.00,60.00,Thursday
279,19.999999999999845
280,-6.109237349664489
281,2.4232815136070458
2,11, 1,11, 0, 3, 0.00,60.00,Thursday
279,19.999999999999987
280,-6.14571177981484
281,2.2532510916416528
2,11, 1,11, 0, 4, 0.00,60.00,Thursday
279,20.000000000000179
280,-5.678396747137197
281,2.195426982471634
2,11, 1,11, 0, 5, 0.00,60.00,Thursday
279,20.000000000000055
280,-5.092655692001483
281,2.163639797973931
2,11, 1,11, 0, 6, 0.00,60.00,Thursday
279,20.000000000000119
280,-4.026244505771809
281,2.2476343194311747
2,11, 1,11, 0, 7, 0.00,60.00,Thursday
279,20.000000000000186
280,-4.005467187967126
281,2.165489719229905
2,11, 1,11, 0, 8, 0.00,60.00,Thursday
279,20.000000000000168
280,-3.409063022028653
281,2.1857839588023877
2,11, 1,11, 0, 9, 0.00,60.00,Thursday
279,20.00000000000004
280,-1.8246777340801546
281,2.431973850274178
2,11, 1,11, 0,10, 0.00,60.00,Thursday
279,20.000000000000037
280,0.8444543774451904
281,2.996352064835759
2,11, 1,11, 0,11, 0.00,60.00,Thursday
279,19.999999999999944
280,6.421124610715364
281,4.378114472360483
2,11, 1,11, 0,12, 0.00,60.00,Thursday
279,20.000000000000055
280,7.1961120861050189
281,5.231573436556794
2,11, 1,11, 0,13, 0.00,60.00,Thursday
279,20.000000000000026
280,10.340035856019947
281,6.182722426520506
2,11, 1,11, 0,14, 0.00,60.00,Thursday
279,20.000000000000005
280,11.55518363121683
281,6.808710551679491
2,11, 1,11, 0,15, 0.00,60.00,Thursday
279,20.00000000000001
280,12.098503252398963
281,7.297375679704787
2,11, 1,11, 0,16, 0.00,60.00,Thursday
279,20.0
280,10.041616697380063
281,7.208306284893466
2,11, 1,11, 0,17, 0.00,60.00,Thursday
279,20.000000000000055
280,8.34619993651302
281,7.005934564648463
2,11, 1,11, 0,18, 0.00,60.00,Thursday
279,20.000000000000019
280,7.799289222833201
281,6.960774761164088
2,11, 1,11, 0,19, 0.00,60.00,Thursday
279,20.00000000000005
280,7.168375011395022
281,6.829552426411222
2,11, 1,11, 0,20, 0.00,60.00,Thursday
279,20.000000000000005
280,5.618743869277487
281,6.386490567422737
2,11, 1,11, 0,21, 0.00,60.00,Thursday
279,20.00000000000015
280,4.4262014568921919
281,5.989493707593494
2,11, 1,11, 0,22, 0.00,60.00,Thursday
279,20.000000000000079
280,5.980186740134993
281,6.366894612971683
2,11, 1,11, 0,23, 0.00,60.00,Thursday
279,20.00000000000001
280,4.411393928768074
281,5.925690379918847
2,11, 1,11, 0,24, 0.00,60.00,Thursday
279,20.000000000000097
280,3.8874536616507697
281,5.645675632759298
2,12, 1,12, 0, 1, 0.00,60.00,Friday
279,20.00000000000011
280,2.8273587210167756
281,5.34528123279379
2,12, 1,12, 0, 2, 0.00,60.00,Friday
279,20.000000000000136
280,0.1577129812903888
281,4.643992417886091
2,12, 1,12, 0, 3, 0.00,60.00,Friday
279,20.000000000000044
280,-0.9408926899745231
281,4.307670709674232
2,12, 1,12, 0, 4, 0.00,60.00,Friday
279,19.9999999999999
280,-3.1404133428304314
281,3.743669128896075
2,12, 1,12, 0, 5, 0.00,60.00,Friday
279,19.99999999999998