Program Version,EnergyPlus, Version 9.2.0-921312fa1d, YMD=2019.10.24 09:57
1,5,Environment Title[],Latitude[deg],Longitude[deg],Time Zone[],Elevation[m]
2,8,Day of Simulation[],Month[],Day of Month[],DST Indicator[1=yes 0=no],Hour[],StartMinute[],EndMinute[],DayType
3,5,Cumulative Day of Simulation[],Month[],Day of Month[],DST Indicator[1=yes 0=no],DayType  ! When Daily Meters Requested
4,2,Cumulative Days of Simulation[],Month[]  ! When Monthly Meters Requested
5,1,Cumulative Days of Simulation[] ! When Run Period Meters Requested
6,1,Calendar Year of Simulation[] ! When Annual Meters Requested
12,1,Electricity:Facility [J] !Hourly
613,1,Gas:Facility [J] !Hourly
End of Data Dictionary
1,RUN PERIOD 1,  39.83,-104.65,  -7.00,1650.00
2,1, 1, 1, 0, 1, 0.00,60.00,Monday
12,3020846.902989157
613,30797092.890026019
2,1, 1, 1, 0, 2, 0.00,60.00,Monday
12,2731607.9610742179
613,30681684.113803399
2,1, 1, 1, 0, 3, 0.00,60.00,Monday
12,2619167.6041270059
613,30512361.006251266
2,1, 1, 1, 0, 4, 0.00,60.00,Monday
12,2560983.5254333757
613,30578514.58967524
2,1, 1, 1, 0, 5, 0.00,60.00,Monday
12,2494638.4402599327
613,30243375.4002626
2,1, 1, 1, 0, 6, 0.00,60.00,Monday
12,2881392.4730811438
613,28957561.386794405
2,1, 1, 1, 0, 7, 0.00,60.00,Monday
12,3846614.688904875
613,27729604.494937008
2,1, 1, 1, 0, 8, 0.00,60.00,Monday
12,5622974.781388644
613,25976217.24088235
2,1, 1, 1, 0, 9, 0.00,60.00,Monday
12,10624027.623569064
613,23326868.851405983
2,1, 1, 1, 0,10, 0.00,60.00,Monday
12,3957638.7021286014
613,16985590.199613107
2,1, 1, 1, 0,11, 0.00,60.00,Monday
12,3929525.0313598846
613,12556996.775107479
2,1, 1, 1, 0,12, 0.00,60.00,Monday
12,5071495.764529867
613,9643617.506600999
2,1, 1, 1, 0,13, 0.00,60.00,Monday
12,5030093.899716193
613,8187206.185984297
2,1, 1, 1, 0,14, 0.00,60.00,Monday
12,3794967.241883509
613,7639251.000861478
2,1, 1, 1, 0,15, 0.00,60.00,Monday
12,5037349.092318168
613,6288211.983649066
2,1, 1, 1, 0,16, 0.00,60.00,Monday
12,5487558.957387523
613,6460981.217741773
2,1, 1, 1, 0,17, 0.00,60.00,Monday
12,4774517.824973223
613,9216145.67822725
2,1, 1, 1, 0,18, 0.00,60.00,Monday
12,7405305.788260201
613,11232499.869130558
2,1, 1, 1, 0,19, 0.00,60.00,Monday
12,16502990.597334616
613,13941967.473385163
2,1, 1, 1, 0,20, 0.00,60.00,Monday
12,6772247.990716411
613,14719932.136475919
2,1, 1, 1, 0,21, 0.00,60.00,Monday
12,6338594.939667995
613,15659193.69443996
2,1, 1, 1, 0,22, 0.00,60.00,Monday
12,6878209.690909049
613,16886329.179584039
2,1, 1, 1, 0,23, 0.00,60.00,Monday
12,4986618.726013147
613,18343841.8366973
2,1, 1, 1, 0,24, 0.00,60.00,Monday
12,3663634.4766007645
613,19843757.42298635
2,2, 1, 2, 0, 1, 0.00,60.00,Tuesday
12,2832078.266377046
613,21183709.19991622
2,2, 1, 2, 0, 2, 0.00,60.00,Tuesday
12,2565882.333924858
613,22241807.290702728
2,2, 1, 2, 0, 3, 0.00,60.00,Tuesday
12,2461727.6865136527
613,22494448.903265127
2,2, 1, 2, 0, 4, 0.00,60.00,Tuesday
12,3572162.797404455
613,24282839.3887466
2,2, 1, 2, 0, 5, 0.00,60.00,Tuesday
12,2363525.691992529
613,23566221.936738239
2,2, 1, 2, 0, 6, 0.00,60.00,Tuesday
12,2782554.726242315
613,23924070.651890018
2,2, 1, 2, 0, 7, 0.00,60.00,Tuesday
12,3741778.436838615
613,22390629.04947172
2,2, 1, 2, 0, 8, 0.00,60.00,Tuesday
12,5546630.998485899
613,20223955.716415135
2,2, 1, 2, 0, 9, 0.00,60.00,Tuesday
12,4126366.8738595678
613,18496740.441324548
2,2, 1, 2, 0,10, 0.00,60.00,Tuesday
12,5162509.7036820319
613,13065668.29172251
2,2, 1, 2, 0,11, 0.00,60.00,Tuesday
12,5639638.1817471799
613,8151891.39400305
2,2, 1, 2, 0,12, 0.00,60.00,Tuesday
12,4448567.887148542
613,5352838.565662267
2,2, 1, 2, 0,13, 0.00,60.00,Tuesday
12,3712918.4821032129
613,3774078.4555627086
2,2, 1, 2, 0,14, 0.00,60.00,Tuesday
12,3707209.382614618
613,3170023.548061317
2,2, 1, 2, 0,15, 0.00,60.00,Tuesday
12,3571231.773025964
613,1369638.4305597083
2,2, 1, 2, 0,16, 0.00,60.00,Tuesday
12,5080920.904837977
613,2219140.6156750505
2,2, 1, 2, 0,17, 0.00,60.00,Tuesday
12,4659575.640538846
613,3362507.3780387106
2,2, 1, 2, 0,18, 0.00,60.00,Tuesday
12,7181987.209807274
613,4372349.854484498
2,2, 1, 2, 0,19, 0.00,60.00,Tuesday
12,6728123.816999849
613,6631069.010537575
2,2, 1, 2, 0,20, 0.00,60.00,Tuesday
12,6637824.382370454
613,7874167.144836363
2,2, 1, 2, 0,21, 0.00,60.00,Tuesday
12,6225951.276727002
613,9922611.751877539
2,2, 1, 2, 0,22, 0.00,60.00,Tuesday
12,5564017.868795907
613,10420096.994938385
2,2, 1, 2, 0,23, 0.00,60.00,Tuesday
12,4830959.369902071
613,10416608.043479301
2,2, 1, 2, 0,24, 0.00,60.00,Tuesday
12,9277076.596386027
613,12685295.59834494
2,3, 1, 3, 0, 1, 0.00,60.00,Wednesday
12,3317171.4454785964
613,14283477.365762739
2,3, 1, 3, 0, 2, 0.00,60.00,Wednesday
12,2432715.887200768
613,15460065.524787443
2,3, 1, 3, 0, 3, 0.00,60.00,Wednesday
12,2346202.1789876029
613,16611103.821292263
2,3, 1, 3, 0, 4, 0.00,60.00,Wednesday
12,2310411.325974145
613,17817672.8592447
2,3, 1, 3, 0, 5, 0.00,60.00,Wednesday
12,2264790.0330815215
613,18537930.213904296
2,3, 1, 3, 0, 6, 0.00,60.00,Wednesday
12,3810712.0327143587
613,18493820.53253489
2,3, 1, 3, 0, 7, 0.00,60.00,Wednesday
12,3655797.1640456176
613,18011877.47104318
2,3, 1, 3, 0, 8, 0.00,60.00,Wednesday
12,4294600.784893713
613,17409934.70210975
2,3, 1, 3, 0, 9, 0.00,60.00,Wednesday
12,4028920.2019924607
613,13534092.711301025
2,3, 1, 3, 0,10, 0.00,60.00,Wednesday
12,16524844.313793973
613,11228433.987731368
2,3, 1, 3, 0,11, 0.00,60.00,Wednesday
12,14280373.722383334
613,8049175.405689182
2,3, 1, 3, 0,12, 0.00,60.00,Wednesday
12,4162522.704881255
613,5127616.234621289
2,3, 1, 3, 0,13, 0.00,60.00,Wednesday
12,3722519.9703590197
613,4263051.582962137
2,3, 1, 3, 0,14, 0.00,60.00,Wednesday
12,3736117.5673746189
613,4642225.05817509
2,3, 1, 3, 0,15, 0.00,60.00,Wednesday
12,4953919.096261153
613,4763889.6267645419
2,3, 1, 3, 0,16, 0.00,60.00,Wednesday
12,3993399.000772815
613,7462856.612979198
2,3, 1, 3, 0,17, 0.00,60.00,Wednesday
12,4797787.600159461
613,10401200.999189116
2,3, 1, 3, 0,18, 0.00,60.00,Wednesday
12,6172006.193500667
613,12756120.11456514
2,3, 1, 3, 0,19, 0.00,60.00,Wednesday
12,8075134.559426798
613,13028085.557103945
2,3, 1, 3, 0,20, 0.00,60.00,Wednesday
12,17168166.949051918
613,14289938.720037949
2,3, 1, 3, 0,21, 0.00,60.00,Wednesday
12,6753198.429893623
613,17343652.44660751
2,3, 1, 3, 0,22, 0.00,60.00,Wednesday
12,5748041.967180041
613,19791856.508296495
2,3, 1, 3, 0,23, 0.00,60.00,Wednesday
12,5072072.990894607
613,22695754.585581557
2,3, 1, 3, 0,24, 0.00,60.00,Wednesday
12,4946163.566357746
613,25268595.313190357
2,4, 1, 4, 0, 1, 0.00,60.00,Thursday
12,2959145.574090102
613,27654841.29812033
2,4, 1, 4, 0, 2, 0.00,60.00,Thursday
12,3925302.3757215209
613,31493124.315184587
2,4, 1, 4, 0, 3, 0.00,60.00,Thursday
12,2665066.788034872
613,32849859.829617356
2,4, 1, 4, 0, 4, 0.00,60.00,Thursday
12,2603057.8383355599
613,32721224.95028226
2,4, 1, 4, 0, 5, 0.00,60.00,Thursday
12,2551204.280243228
613,33124092.945678634
2,4, 1, 4, 0, 6, 0.00,60.00,Thursday
12,4090599.970393844
613,32746220.729010296
2,4, 1, 4, 0, 7, 0.00,60.00,Thursday
12,3914715.822894445
613,31197777.717581925
2,4, 1, 4, 0, 8, 0.00,60.00,Thursday
12,5420982.370165202
613,27657111.975900346
2,4, 1, 4, 0, 9, 0.00,60.00,Thursday
12,15637739.021743788
613,25018144.11185004
2,4, 1, 4, 0,10, 0.00,60.00,Thursday
12,5610237.907039518
613,19895821.344891337
2,4, 1, 4, 0,11, 0.00,60.00,Thursday
12,5150660.611400761
613,16824807.119441395
2,4, 1, 4, 0,12, 0.00,60.00,Thursday
12,9110831.58593279
613,15613236.357486304
2,4, 1, 4, 0,13, 0.00,60.00,Thursday
12,3882949.41182122
613,12433210.586310029
2,4, 1, 4, 0,14, 0.00,60.00,Thursday
12,3855045.3137999617
613,10698835.299717473
2,4, 1, 4, 0,15, 0.00,60.00,Thursday
12,4913083.822399763
613,8919467.873119012
2,4, 1, 4, 0,16, 0.00,60.00,Thursday
12,4694281.8219373519
613,9118367.702631453
2,4, 1, 4, 0,17, 0.00,60.00,Thursday
12,5089745.232280743
613,9151112.93568353
2,4, 1, 4, 0,18, 0.00,60.00,Thursday
12,6087724.021194976
613,8463898.296618484
2,4, 1, 4, 0,19, 0.00,60.00,Thursday
12,6759717.667798499
613,8240042.913334814
2,4, 1, 4, 0,20, 0.00,60.00,Thursday
12,9320465.477347209
613,7512154.751995033
2,4, 1, 4, 0,21, 0.00,60.00,Thursday
12,7324129.769877915
613,8057375.807069709
2,4, 1, 4, 0,22, 0.00,60.00,Thursday
12,5527190.1452566259
613,8544578.671712408
2,4, 1, 4, 0,23, 0.00,60.00,Thursday
12,6044158.472261187
613,9449189.212335391
2,4, 1, 4, 0,24, 0.00,60.00,Thursday
12,3247773.089178387
613,7832090.359711733
2,5, 1, 5, 0, 1, 0.00,60.00,Friday
12,2629409.8074080829
613,10862451.95655638
2,5, 1, 5, 0, 2, 0.00,60.00,Friday
12,2116260.0201625067
613,8510804.089473084
2,5, 1, 5, 0, 3, 0.00,60.00,Friday
12,2318245.008106622
613,8343607.429134792
2,5, 1, 5, 0, 4, 0.00,60.00,Friday
12,2959102.016679555
613,9078567.804753533
2,5, 1, 5, 0, 5, 0.00,60.00,Friday
12,2078780.2896027207
613,9065048.138504059
2,5, 1, 5, 0, 6, 0.00,60.00,Friday
12,6378495.562328805
613,8707667.912604578
2,5, 1, 5, 0, 7, 0.00,60.00,Friday
12,13853815.436981354
613,11283210.287236521
2,5, 1, 5, 0, 8, 0.00,60.00,Friday
12,4053250.804657441
613,6679146.755184614
2,5, 1, 5, 0, 9, 0.00,60.00,Friday
12,3839062.538054703
613,3865248.338111936
2,5, 1, 5, 0,10, 0.00,60.00,Friday
12,3444109.2386857059
613,0.0
2,5, 1, 5, 0,11, 0.00,60.00,Friday
12,20327362.736461276
613,0.0
2,5, 1, 5, 0,12, 0.00,60.00,Friday
12,15300599.087389736
613,0.0
2,5, 1, 5, 0,13, 0.00,60.00,Friday
12,4762024.355421357
613,0.0
2,5, 1, 5, 0,14, 0.00,60.00,Friday
12,4648434.250169303
613,0.0
2,5, 1, 5, 0,15, 0.00,60.00,Friday
12,3544337.5193976296
613,0.0
2,5, 1, 5, 0,16, 0.00,60.00,Friday
12,3846858.166299197
613,0.0
2,5, 1, 5, 0,17, 0.00,60.00,Friday
12,4593549.363651183
613,0.0
2,5, 1, 5, 0,18, 0.00,60.00,Friday
12,8484729.15090125
613,0.0
2,5, 1, 5, 0,19, 0.00,60.00,Friday
12,6597915.984175307
613,0.0
2,5, 1, 5, 0,20, 0.00,60.00,Friday
12,9411531.666247156
613,0.0
2,5, 1, 5, 0,21, 0.00,60.00,Friday
12,7442360.916334696
613,2420116.2884558436
2,5, 1, 5, 0,22, 0.00,60.00,Friday
12,8630545.742456533
613,4760723.78870058
2,5, 1, 5, 0,23, 0.00,60.00,Friday
12,4741756.199643215
613,5873775.518632036
2,5, 1, 5, 0,24, 0.00,60.00,Friday
12,3430544.1683726657
613,7973212.5715811769
2,6, 1, 6, 0, 1, 0.00,60.00,Saturday
12,2602076.5131382925
613,9470454.588528989
2,6, 1, 6, 0, 2, 0.00,60.00,Saturday
12,5041678.918884248
613,10438969.011346136
2,6, 1, 6, 0, 3, 0.00,60.00,Saturday
12,3072588.1610102059
613,11775343.077943292
2,6, 1, 6, 0, 4, 0.00,60.00,Saturday
12,2535643.316172962
613,13332914.520461949
2,6, 1, 6, 0, 5, 0.00,60.00,Saturday
12,2188230.6596616909
613,14639005.874732575
2,6, 1, 6, 0, 6, 0.00,60.00,Saturday
12,18080302.07585839
613,16064452.601019947
2,6, 1, 6, 0, 7, 0.00,60.00,Saturday
12,6132011.761332837
613,15767529.087384405
2,6, 1, 6, 0, 8, 0.00,60.00,Saturday
12,4258702.675879601
613,15581758.67723772
2,6, 1, 6, 0, 9, 0.00,60.00,Saturday
12,4013677.957139641
613,12757853.868352492
2,6, 1, 6, 0,10, 0.00,60.00,Saturday
12,6465167.978751274
613,10643582.033838502
2,6, 1, 6, 0,11, 0.00,60.00,Saturday
12,3847980.023008832
613,8404169.974208808
2,6, 1, 6, 0,12, 0.00,60.00,Saturday
12,6023017.212249439
613,5494012.989124344
2,6, 1, 6, 0,13, 0.00,60.00,Saturday
12,11319755.319313178
613,4348304.3895833
2,6, 1, 6, 0,14, 0.00,60.00,Saturday
12,6311225.009202737
613,4424059.269499256
2,6, 1, 6, 0,15, 0.00,60.00,Saturday
12,3782450.415983971
613,2959504.1965373356
2,6, 1, 6, 0,16, 0.00,60.00,Saturday
12,5108150.884958083
613,3284073.1856211589
2,6, 1, 6, 0,17, 0.00,60.00,Saturday
12,4724776.1556054879
613,6682961.344215162
2,6, 1, 6, 0,18, 0.00,60.00,Saturday
12,8687871.731642466
613,8680063.656789277
2,6, 1, 6, 0,19, 0.00,60.00,Saturday
12,11808153.377602842
613,10086168.43734336
2,6, 1, 6, 0,20, 0.00,60.00,Saturday
12,7948658.417640652
613,11848533.802546092
2,6, 1, 6, 0,21, 0.00,60.00,Saturday
12,10420660.34298678
613,13604421.412474182
2,6, 1, 6, 0,22, 0.00,60.00,Saturday
12,24800996.367191979
613,16685620.805881707
2,6, 1, 6, 0,23, 0.00,60.00,Saturday
12,7488512.174791148
613,18217595.005111055
2,6, 1, 6, 0,24, 0.00,60.00,Saturday
12,4825722.343127608
613,20937913.00041759
2,7, 1, 7, 0, 1, 0.00,60.00,Sunday
12,2862381.5718934515
613,22726959.75380159
2,7, 1, 7, 0, 2, 0.00,60.00,Sunday
12,2586393.338641844
613,23286367.24384374
2,7, 1, 7, 0, 3, 0.00,60.00,Sunday
12,2537355.952363234
613,26345954.908066188
2,7, 1, 7, 0, 4, 0.00,60.00,Sunday
12,5373942.783070732
613,28601048.611823538
2,7, 1, 7, 0, 5, 0.00,60.00,Sunday
12,15658536.028197183
613,31466523.822075819
2,7, 1, 7, 0, 6, 0.00,60.00,Sunday
12,3148336.6140515927
613,30707536.445760237
2,7, 1, 7, 0, 7, 0.00,60.00,Sunday
12,9148082.50775407
613,31012669.6120844
2,7, 1, 7, 0, 8, 0.00,60.00,Sunday
12,5575422.983891964
613,22847146.66627395
2,7, 1, 7, 0, 9, 0.00,60.00,Sunday
12,4181656.9854858105
613,21312489.216499878
2,7, 1, 7, 0,10, 0.00,60.00,Sunday
12,8216646.311504428
613,19861569.159445205
2,7, 1, 7, 0,11, 0.00,60.00,Sunday
12,4280104.962124189
613,17731136.473905028
2,7, 1, 7, 0,12, 0.00,60.00,Sunday
12,4038108.5023400087
613,15531917.469496211
2,7, 1, 7, 0,13, 0.00,60.00,Sunday
12,5328046.314297013
613,14338843.671103493
2,7, 1, 7, 0,14, 0.00,60.00,Sunday
12,3931661.019628333
613,13928136.446358512
2,7, 1, 7, 0,15, 0.00,60.00,Sunday
12,3987465.3391911245
613,13400259.368375602
2,7, 1, 7, 0,16, 0.00,60.00,Sunday
12,4108920.8777970469
613,13346016.805091147
2,7, 1, 7, 0,17, 0.00,60.00,Sunday
12,11316893.26329718
613,12896148.030192715
2,7, 1, 7, 0,18, 0.00,60.00,Sunday
12,9339606.808806055
613,11383251.91056496
2,7, 1, 7, 0,19, 0.00,60.00,Sunday
12,6804029.468375641
613,10496701.374152249
2,7, 1, 7, 0,20, 0.00,60.00,Sunday
12,6690629.076189852
613,10563341.53013289
2,7, 1, 7, 0,21, 0.00,60.00,Sunday
12,6266395.299534912
613,11982296.645522843
2,7, 1, 7, 0,22, 0.00,60.00,Sunday
12,6858467.080507263
613,14046768.999047662
2,7, 1, 7, 0,23, 0.00,60.00,Sunday
12,6045803.591211046
613,14328262.666401154
2,7, 1, 7, 0,24, 0.00,60.00,Sunday
12,3547372.4581027489
613,13922904.189804919
2,8, 1, 8, 0, 1, 0.00,60.00,Monday
12,2704252.804596707
613,14673966.73679234
2,8, 1, 8, 0, 2, 0.00,60.00,Monday
12,3570455.8447486867
613,15606492.247917073
2,8, 1, 8, 0, 3, 0.00,60.00,Monday
12,2357665.3934440689
613,17194888.71728888
2,8, 1, 8, 0, 4, 0.00,60.00,Monday
12,2339652.6761755135
613,19306841.42107658
2,8, 1, 8, 0, 5, 0.00,60.00,Monday
12,2304120.216180664
613,20540890.80905473
2,8, 1, 8, 0, 6, 0.00,60.00,Monday
12,2709694.4716953437
613,20213530.62103529
2,8, 1, 8, 0, 7, 0.00,60.00,Monday
12,3713804.9769625349
613,20966030.091959306
2,8, 1, 8, 0, 8, 0.00,60.00,Monday
12,5478950.681629743
613,18630434.26651252
2,8, 1, 8, 0, 9, 0.00,60.00,Monday
12,10417749.778620962
613,11995340.205500799
2,8, 1, 8, 0,10, 0.00,60.00,Monday
12,3775324.402174654
613,7700905.258795904
2,8, 1, 8, 0,11, 0.00,60.00,Monday
12,3789296.2333532937
613,5415592.017227418
2,8, 1, 8, 0,12, 0.00,60.00,Monday
12,4946760.353795254
613,3286316.7266567728
2,8, 1, 8, 0,13, 0.00,60.00,Monday
12,4697204.14363081
613,351682.8203589053
2,8, 1, 8, 0,14, 0.00,60.00,Monday
12,3464962.722907126
613,0.0
2,8, 1, 8, 0,15, 0.00,60.00,Monday
12,4914303.355219068
613,0.0
2,8, 1, 8, 0,16, 0.00,60.00,Monday
12,5361419.1002910709
613,0.0
2,8, 1, 8, 0,17, 0.00,60.00,Monday
12,4593549.363651183
613,0.0
2,8, 1, 8, 0,18, 0.00,60.00,Monday
12,7275082.713176201
613,4544684.468575064
2,8, 1, 8, 0,19, 0.00,60.00,Monday
12,16456535.953581863
613,6120238.868685009
2,8, 1, 8, 0,20, 0.00,60.00,Monday
12,6632086.020615646
613,7581930.71037514
2,8, 1, 8, 0,21, 0.00,60.00,Monday
12,6184488.667407376
613,7811053.500801424
2,8, 1, 8, 0,22, 0.00,60.00,Monday
12,6741310.746974014
613,9890724.50272882
2,8, 1, 8, 0,23, 0.00,60.00,Monday
12,4839493.470468157
613,10851222.525334934
2,8, 1, 8, 0,24, 0.00,60.00,Monday
12,3540929.9579445004
613,13594808.235644369
2,9, 1, 9, 0, 1, 0.00,60.00,Tuesday
12,2726415.126292269
613,15802622.988947597
2,9, 1, 9, 0, 2, 0.00,60.00,Tuesday
12,2463430.671898431
613,17024271.399010537
2,9, 1, 9, 0, 3, 0.00,60.00,Tuesday
12,2375309.699512751
613,18093456.865198517
2,9, 1, 9, 0, 4, 0.00,60.00,Tuesday
12,2333231.442530377
613,18979828.502498468
2,9, 1, 9, 0, 5, 0.00,60.00,Tuesday
12,3428190.1073266437
613,19993049.146063307
2,9, 1, 9, 0, 6, 0.00,60.00,Tuesday
12,2707977.0425827328
613,20126067.44221276
2,9, 1, 9, 0, 7, 0.00,60.00,Tuesday
12,3710791.02897915
613,20812539.348442165
2,9, 1, 9, 0, 8, 0.00,60.00,Tuesday
12,5491779.826447954
613,17397943.181639669
2,9, 1, 9, 0, 9, 0.00,60.00,Tuesday
12,4014218.550570905
613,12785384.565021014
2,9, 1, 9, 0,10, 0.00,60.00,Tuesday
12,5090860.164202457
613,9333582.564213746
2,9, 1, 9, 0,11, 0.00,60.00,Tuesday
12,5046179.667633569
613,6765771.051482699
2,9, 1, 9, 0,12, 0.00,60.00,Tuesday
12,4967871.271635025
613,5086850.269175918
2,9, 1, 9, 0,13, 0.00,60.00,Tuesday
12,3716705.659390058
613,3966947.297624224
2,9, 1, 9, 0,14, 0.00,60.00,Tuesday
12,3703273.9441179668
613,2969604.2361663847
2,9, 1, 9, 0,15, 0.00,60.00,Tuesday
12,3747243.8196069665
613,1166544.70141504
2,9, 1, 9, 0,16, 0.00,60.00,Tuesday
12,5058011.269233087
613,1019363.910740574
2,9, 1, 9, 0,17, 0.00,60.00,Tuesday
12,4665144.512161021
613,3646112.221437224
2,9, 1, 9, 0,18, 0.00,60.00,Tuesday
12,7217857.527446348
613,6175457.664203135
2,9, 1, 9, 0,19, 0.00,60.00,Tuesday
12,6735208.822106054
613,6991885.689381808
2,9, 1, 9, 0,20, 0.00,60.00,Tuesday
12,6627290.569923009
613,7337713.724425046
2,9, 1, 9, 0,21, 0.00,60.00,Tuesday
12,6225402.210304994
613,9894649.552855194
2,9, 1, 9, 0,22, 0.00,60.00,Tuesday
12,5580165.325632223
613,11242435.392741006
2,9, 1, 9, 0,23, 0.00,60.00,Tuesday
12,4888313.299086476
613,13337460.454560904
2,9, 1, 9, 0,24, 0.00,60.00,Tuesday
12,9480440.080999662
613,16534687.302207193
2,10, 1,10, 0, 1, 0.00,60.00,Wednesday
12,3320998.562906117
613,17849889.4833757
2,10, 1,10, 0, 2, 0.00,60.00,Wednesday
12,2510412.5742915228
613,19416909.616365218
2,10, 1,10, 0, 3, 0.00,60.00,Wednesday
12,2417699.276043456
613,20252222.59537807
2,10, 1,10, 0, 4, 0.00,60.00,Wednesday
12,2388535.9118119825
613,21796308.46719961
2,10, 1,10, 0, 5, 0.00,60.00,Wednesday
12,2349554.5318555214
613,22854715.378214916
2,10, 1,10, 0, 6, 0.00,60.00,Wednesday
12,3912596.7265186079
613,23682297.000382455
2,10, 1,10, 0, 7, 0.00,60.00,Wednesday
12,3746901.19717452
613,22651514.87004755
2,10, 1,10, 0, 8, 0.00,60.00,Wednesday
12,4360626.395529868
613,20772408.150087347
2,10, 1,10, 0, 9, 0.00,60.00,Wednesday
12,4054854.7135012357
613,14854854.541359302
2,10, 1,10, 0,10, 0.00,60.00,Wednesday
12,17311158.205020619
613,11050150.182221616
2,10, 1,10, 0,11, 0.00,60.00,Wednesday
12,13335005.764120609
613,7544158.482455001
2,10, 1,10, 0,12, 0.00,60.00,Wednesday
12,4605468.946995104
613,3792547.6565968019
2,10, 1,10, 0,13, 0.00,60.00,Wednesday
12,3665155.923738131
613,1341683.9231579668
2,10, 1,10, 0,14, 0.00,60.00,Wednesday
12,3655512.03855039
613,537242.9486534161
2,10, 1,10, 0,15, 0.00,60.00,Wednesday
12,4860382.0957872
613,0.0
2,10, 1,10, 0,16, 0.00,60.00,Wednesday
12,3846858.166299197
613,0.0
2,10, 1,10, 0,17, 0.00,60.00,Wednesday
12,4601038.384586611
613,381391.91450253609
2,10, 1,10, 0,18, 0.00,60.00,Wednesday
12,6014096.594306014
613,4714288.628919643
2,10, 1,10, 0,19, 0.00,60.00,Wednesday
12,7939818.670492432
613,6075972.710123569
2,10, 1,10, 0,20, 0.00,60.00,Wednesday
12,17120595.925468387
613,7050567.733287105
2,10, 1,10, 0,21, 0.00,60.00,Wednesday
12,6532816.923108888
613,7807736.91991048
2,10, 1,10, 0,22, 0.00,60.00,Wednesday
12,5569307.511712835
613,10689481.612302497
2,10, 1,10, 0,23, 0.00,60.00,Wednesday
12,4882830.366569227
613,13058232.215266008
2,10, 1,10, 0,24, 0.00,60.00,Wednesday
12,4765621.905312334
613,16046044.719310947
2,11, 1,11, 0, 1, 0.00,60.00,Thursday
12,2767965.307589668
613,17918641.001125628
2,11, 1,11, 0, 2, 0.00,60.00,Thursday
12,3696286.2951918377
613,19801700.511469868
2,11, 1,11, 0, 3, 0.00,60.00,Thursday
12,2425812.3104280389
613,20665393.52159667
2,11, 1,11, 0, 4, 0.00,60.00,Thursday
12,2383249.4253303746
613,21527084.597003934
2,11, 1,11, 0, 5, 0.00,60.00,Thursday
12,2334879.078458635
613,22107341.413648487
2,11, 1,11, 0, 6, 0.00,60.00,Thursday
12,3871148.790622197
613,21569264.473946714
2,11, 1,11, 0, 7, 0.00,60.00,Thursday
12,3721848.7129445399
613,21375671.871890416
2,11, 1,11, 0, 8, 0.00,60.00,Thursday
12,5550512.85724711
613,20254239.99648686
2,11, 1,11, 0, 9, 0.00,60.00,Thursday
12,15588613.848477919
613,17923149.475914387
2,11, 1,11, 0,10, 0.00,60.00,Thursday
12,5279391.581017631
613,12069854.667239704
2,11, 1,11, 0,11, 0.00,60.00,Thursday
12,4926984.274274336
613,7112511.512484403
2,11, 1,11, 0,12, 0.00,60.00,Thursday
12,8922919.938766603
613,4422606.804537408
2,11, 1,11, 0,13, 0.00,60.00,Thursday
12,3484695.3145510179
613,1318226.5685551128
2,11, 1,11, 0,14, 0.00,60.00,Thursday
12,3464962.722907126
613,0.0
2,11, 1,11, 0,15, 0.00,60.00,Thursday
12,4739395.233497167
613,34005.99470671464
2,11, 1,11, 0,16, 0.00,60.00,Thursday
12,4874233.12599497
613,1518212.0089338632
2,11, 1,11, 0,17, 0.00,60.00,Thursday
12,4641291.718384294
613,2431365.6259636895
2,11, 1,11, 0,18, 0.00,60.00,Thursday
12,5974873.152909558
613,2716764.0477283319
2,11, 1,11, 0,19, 0.00,60.00,Thursday
12,7791380.003498331
613,2744294.762200725
2,11, 1,11, 0,20, 0.00,60.00,Thursday
12,9259461.958188646
613,4162007.3875801989
2,11, 1,11, 0,21, 0.00,60.00,Thursday
12,6135898.6760707129
613,5336520.450174493
2,11, 1,11, 0,22, 0.00,60.00,Thursday
12,5460644.752234082
613,5155634.36710633
2,11, 1,11, 0,23, 0.00,60.00,Thursday
12,5997409.728831896
613,6991514.475501589
2,11, 1,11, 0,24, 0.00,60.00,Thursday
12,3440486.174722762
613,8479527.197825885
2,12, 1,12, 0, 1, 0.00,60.00,Friday
12,2618015.5389160758
613,10282178.258299636
2,12, 1,12, 0, 2, 0.00,60.00,Friday
12,3516725.7893667847
613,12874201.110986114
2,12, 1,12, 0, 3, 0.00,60.00,Friday
12,2303089.007577457
613,14415487.715239346
2,12, 1,12, 0, 4, 0.00,60.00,Friday
12,2292324.6913116795
613,16896578.32895786
2,12, 1,12, 0, 5, 0.00,60.00,Friday
12,2271799.8668060929
613,18894918.65439745
2,12, 1,12, 0, 6, 0.00,60.00,Friday
12,7252375.8239304679
613,19770212.15625226
2,12, 1,12, 0, 7, 0.00,60.00,Friday
12,13376103.647776777
613,21107191.689802678
2,12, 1,12, 0, 8, 0.00,60.00,Friday
12,4338502.66074672
613,19645717.006125414
2,12, 1,12, 0, 9, 0.00,60.00,Friday
12,4106215.92478024
613,17470516.971704946
2,12, 1,12, 0,10, 0.00,60.00,Friday
12,3931800.436974964
613,15669729.888987903
2,12, 1,12, 0,11, 0.00,60.00,Friday
12,20975575.516408814
613,14230911.249917523
2,12, 1,12, 0,12, 0.00,60.00,Friday
12,15928319.145142939
613,11580641.611419769
2,12, 1,12, 0,13, 0.00,60.00,Friday
12,5160504.761488186
613,10980923.75510774
2,12, 1,12, 0,14, 0.00,60.00,Friday
12,5025440.605149548
613,9981842.338760777
2,12, 1,12, 0,15, 0.00,60.00,Friday
12,3913986.4179559049
613,9658212.619259006
2,12, 1,12, 0,16, 0.00,60.00,Friday
12,4030186.625869711
613,9336332.850618579
2,12, 1,12, 0,17, 0.00,60.00,Friday
12,5947443.999874463
613,11158684.739692713
2,12, 1,12, 0,18, 0.00,60.00,Friday
12,7436611.055152198
613,11816768.166532869
2,12, 1,12, 0,19, 0.00,60.00,Friday
12,7983718.640087514
613,11006950.070298056
2,12, 1,12, 0,20, 0.00,60.00,Friday
12,8360065.389278651
613,10888252.20301482
2,12, 1,12, 0,21, 0.00,60.00,Friday
12,7656682.071863604
613,13270386.6188402
2,12, 1,12, 0,22, 0.00,60.00,Friday
12,8826921.939294655
613,14547954.902646376
2,12, 1,12, 0,23, 0.00,60.00,Friday
12,4927510.602648431
613,15333653.919331674
2,12, 1,12, 0,24, 0.00,60.00,Friday
12,4729599.329307569
613,16335733.168552854
2,13, 1,13, 0, 1, 0.00,60.00,Saturday
12,2727211.92557506
613,15843201.43125109
2,13, 1,13, 0, 2, 0.00,60.00,Saturday
12,5132689.520510887
613,14794132.987396999
2,13, 1,13, 0, 3, 0.00,60.00,Saturday
12,2323020.8444311406
613,15430552.499104176
2,13, 1,13, 0, 4, 0.00,60.00,Saturday
12,2265432.8484409239
613,15527062.670581108
2,13, 1,13, 0, 5, 0.00,60.00,Saturday
12,2203410.296101748
613,15412056.271205483
2,13, 1,13, 0, 6, 0.00,60.00,Saturday
12,18460628.979015039
613,16753552.644518808
2,13, 1,13, 0, 7, 0.00,60.00,Saturday
12,6391458.989965879
613,15885851.317376523
2,13, 1,13, 0, 8, 0.00,60.00,Saturday
12,4207263.446123151
613,12962123.015045593
2,13, 1,13, 0, 9, 0.00,60.00,Saturday
12,3910408.1162192088
613,7498650.739049278
2,13, 1,13, 0,10, 0.00,60.00,Saturday
12,6332743.296658329
613,3639291.6463963657
2,13, 1,13, 0,11, 0.00,60.00,Saturday
12,3701318.4135530597
613,935162.677172929
2,13, 1,13, 0,12, 0.00,60.00,Saturday
12,5916344.198065763
613,0.0
2,13, 1,13, 0,13, 0.00,60.00,Saturday
12,11254313.283960509
613,0.0
2,13, 1,13, 0,14, 0.00,60.00,Saturday
12,6085491.149193979
613,0.0
2,13, 1,13, 0,15, 0.00,60.00,Saturday
12,3724337.5193976296
613,0.0
2,13, 1,13, 0,16, 0.00,60.00,Saturday
12,5044117.088085198
613,0.0
2,13, 1,13, 0,17, 0.00,60.00,Saturday
12,4593549.363651183
613,0.0
2,13, 1,13, 0,18, 0.00,60.00,Saturday
12,8520994.887758935
613,0.0
2,13, 1,13, 0,19, 0.00,60.00,Saturday
12,11637520.022869982
613,0.0
2,13, 1,13, 0,20, 0.00,60.00,Saturday
12,7717196.493628062
613,0.0
2,13, 1,13, 0,21, 0.00,60.00,Saturday
12,10157515.673856594
613,0.0
2,13, 1,13, 0,22, 0.00,60.00,Saturday
12,24608830.574451947
613,1781131.978488615
2,13, 1,13, 0,23, 0.00,60.00,Saturday
12,7411789.926579516
613,4663875.846624013
2,13, 1,13, 0,24, 0.00,60.00,Saturday
12,4521518.396670274
613,5442073.981733191
2,14, 1,14, 0, 1, 0.00,60.00,Sunday
12,2519608.536421194
613,5270623.956931152
2,14, 1,14, 0, 2, 0.00,60.00,Sunday
12,2238500.724878898
613,5569307.677796101
2,14, 1,14, 0, 3, 0.00,60.00,Sunday
12,2147171.1107777014
613,6475087.270588238
2,14, 1,14, 0, 4, 0.00,60.00,Sunday
12,4972179.991540031
613,7700083.9037680509
2,14, 1,14, 0, 5, 0.00,60.00,Sunday
12,15292887.11136559
613,9137397.267190684
2,14, 1,14, 0, 6, 0.00,60.00,Sunday
12,2816534.7603124615
613,8865850.056574313
2,14, 1,14, 0, 7, 0.00,60.00,Sunday
12,8753523.365351515
613,9239648.24785819
2,14, 1,14, 0, 8, 0.00,60.00,Sunday
12,5295316.595594785
613,8558316.2778247
2,14, 1,14, 0, 9, 0.00,60.00,Sunday
12,3877113.3506364675
613,5803054.679430223
2,14, 1,14, 0,10, 0.00,60.00,Sunday
12,7990908.467858711
613,3650208.944051191
2,14, 1,14, 0,11, 0.00,60.00,Sunday
12,3577566.63022974
613,828956.9802711243
2,14, 1,14, 0,12, 0.00,60.00,Sunday
12,3553123.3920811729
613,0.0
2,14, 1,14, 0,13, 0.00,60.00,Sunday
12,4867444.674146465
613,0.0
2,14, 1,14, 0,14, 0.00,60.00,Sunday
12,3478167.792656496
613,0.0
2,14, 1,14, 0,15, 0.00,60.00,Sunday
12,3544337.5193976296
613,0.0
2,14, 1,14, 0,16, 0.00,60.00,Sunday
12,3666858.166299197
613,0.0
2,14, 1,14, 0,17, 0.00,60.00,Sunday
12,11008118.301044429
613,0.0
2,14, 1,14, 0,18, 0.00,60.00,Sunday
12,9055299.73648536
613,0.0
2,14, 1,14, 0,19, 0.00,60.00,Sunday
12,6609938.739739513
613,612280.5373045931
2,14, 1,14, 0,20, 0.00,60.00,Sunday
12,6524226.174798932
613,2088973.2932867767
2,14, 1,14, 0,21, 0.00,60.00,Sunday
12,6117738.4590449179
613,4411678.605163085
2,14, 1,14, 0,22, 0.00,60.00,Sunday
12,6708301.643948546
613,6339345.17369196
2,14, 1,14, 0,23, 0.00,60.00,Sunday
12,5914869.795381574
613,7656368.103177297
2,14, 1,14, 0,24, 0.00,60.00,Sunday
12,3478375.9469937805
613,10409132.27051946
2,15, 1,15, 0, 1, 0.00,60.00,Monday
12,3784670.549113576
613,11903578.644876132
2,15, 1,15, 0, 2, 0.00,60.00,Monday
12,2398423.576745067
613,13713667.691187408
2,15, 1,15, 0, 3, 0.00,60.00,Monday
12,2311368.067675663
613,14837113.800726626
2,15, 1,15, 0, 4, 0.00,60.00,Monday
12,2279553.0999371486
613,16246161.97579558
2,15, 1,15, 0, 5, 0.00,60.00,Monday
12,2232626.4594019285
613,16899942.14461288
2,15, 1,15, 0, 6, 0.00,60.00,Monday
12,2644983.324330823
613,16917998.5887694
2,15, 1,15, 0, 7, 0.00,60.00,Monday
12,3661857.438545189
613,18320507.893328228
2,15, 1,15, 0, 8, 0.00,60.00,Monday
12,5434434.433678531
613,16346207.3800958
2,15, 1,15, 0, 9, 0.00,60.00,Monday
12,10380442.959888228
613,9055614.07906999
2,15, 1,15, 0,10, 0.00,60.00,Monday
12,3709784.348890881
613,4363159.69578788
2,15, 1,15, 0,11, 0.00,60.00,Monday
12,3525437.7788021306
613,1144948.7910621623
2,15, 1,15, 0,12, 0.00,60.00,Monday
12,4702422.241768598
613,0.0
2,15, 1,15, 0,13, 0.00,60.00,Monday
12,4691387.375184882
613,0.0
2,15, 1,15, 0,14, 0.00,60.00,Monday
12,3464962.722907126
613,0.0
2,15, 1,15, 0,15, 0.00,60.00,Monday
12,4734732.99484015
613,0.0
2,15, 1,15, 0,16, 0.00,60.00,Monday
12,5182319.27865017
613,0.0
2,15, 1,15, 0,17, 0.00,60.00,Monday
12,4593549.363651183
613,0.0
2,15, 1,15, 0,18, 0.00,60.00,Monday
12,7499727.21927925
613,0.0
2,15, 1,15, 0,19, 0.00,60.00,Monday
12,15843238.816257
613,0.0
2,15, 1,15, 0,20, 0.00,60.00,Monday
12,6483207.04426131
613,0.0
2,15, 1,15, 0,21, 0.00,60.00,Monday
12,6031110.630351861
613,0.0
2,15, 1,15, 0,22, 0.00,60.00,Monday
12,6586093.871832936
613,1946760.9286242768
2,15, 1,15, 0,23, 0.00,60.00,Monday
12,4734850.174058547
613,5522073.69511594
2,15, 1,15, 0,24, 0.00,60.00,Monday
12,3407799.277177399
613,6814887.915673437
2,16, 1,16, 0, 1, 0.00,60.00,Tuesday
12,2546064.2714805717
613,6617930.0375079209
2,16, 1,16, 0, 2, 0.00,60.00,Tuesday
12,3415214.1379206229
613,7702586.706198405
2,16, 1,16, 0, 3, 0.00,60.00,Tuesday
12,2158817.9453185556
613,7068223.350955871
2,16, 1,16, 0, 4, 0.00,60.00,Tuesday
12,2189086.8261215218
613,11639003.621459328
2,16, 1,16, 0, 5, 0.00,60.00,Tuesday
12,2174920.432783226
613,13961158.535886633
2,16, 1,16, 0, 6, 0.00,60.00,Tuesday
12,2600181.285082716
613,14636373.838380246
2,16, 1,16, 0, 7, 0.00,60.00,Tuesday
12,3595692.4178300995
613,14950934.735339925
2,16, 1,16, 0, 8, 0.00,60.00,Tuesday
12,5430638.049883015
613,14234276.919642177
2,16, 1,16, 0, 9, 0.00,60.00,Tuesday
12,4026885.6764577857
613,13430480.824585174
2,16, 1,16, 0,10, 0.00,60.00,Tuesday
12,6454686.43663036
613,13190990.049795269
2,16, 1,16, 0,11, 0.00,60.00,Tuesday
12,5145639.13500146
613,11824017.409520507
2,16, 1,16, 0,12, 0.00,60.00,Tuesday
12,3920374.1621921916
613,9536083.597640785
2,16, 1,16, 0,13, 0.00,60.00,Tuesday
12,3798172.37910821
613,8115787.108522042