Program Version,EnergyPlus-Windows-64 8.1.0.009, YMD=2014.10.29 14:11
1,5,Environment Title[],Latitude[deg],Longitude[deg],Time Zone[],Elevation[m]
2,6,Day of Simulation[],Month[],Day of Month[],DST Indicator[1=yes 0=no],Hour[],StartMinute[],EndMinute[],DayType
3,3,Cumulative Day of Simulation[],Month[],Day of Month[],DST Indicator[1=yes 0=no],DayType  ! When Daily Meters Requested
4,2,Cumulative Days of Simulation[],Month[]  ! When Monthly Meters Requested
5,1,Cumulative Days of Simulation[] ! When Run Period Meters Requested
12,1,Electricity:Facility [J] !TimeStep
130,1,Gas:Facility [J] !TimeStep
End of Data Dictionary
1,DENVER CENTENNIAL  GOLDEN   N ANN CLG .4% CONDNS DB=>MWB,  39.74,-105.18,  -7.00,1829.00
2,1, 7,21, 0, 1, 0.00,60.00,SummerDesignDay
12,3005982.45617893
130,218585.692158482
2,1, 7,21, 0, 2, 0.00,60.00,SummerDesignDay
12,1771767.67353581
130,212991.765246596
2,1, 7,21, 0, 3, 0.00,60.00,SummerDesignDay
12,1213139.78768592
130,212991.765246596
2,1, 7,21, 0, 4, 0.00,60.00,SummerDesignDay
12,1165836.61217792
130,1996468.36262343
2,1, 7,21, 0, 5, 0.00,60.00,SummerDesignDay
12,1141280.80580285
130,686779.07764522
2,1, 7,21, 0, 6, 0.00,60.00,SummerDesignDay
12,1257543.23042212
130,696416.089167258
2,1, 7,21, 0, 7, 0.00,60.00,SummerDesignDay
12,1687670.82915026
130,714604.086828989
2,1, 7,21, 0, 8, 0.00,60.00,SummerDesignDay
12,2255078.27843037
130,716464.88206046
2,1, 7,21, 0, 9, 0.00,60.00,SummerDesignDay
12,2111812.98452721
130,681534.891967116
2,1, 7,21, 0,10, 0.00,60.00,SummerDesignDay
12,2745513.62945416
130,4574208.9031906
2,1, 7,21, 0,11, 0.00,60.00,SummerDesignDay
12,5052999.16941925
130,652547.766092852
2,1, 7,21, 0,12, 0.00,60.00,SummerDesignDay
12,7929032.88641463
130,654399.128241558
2,1, 7,21, 0,13, 0.00,60.00,SummerDesignDay
12,10946568.0370715
130,651569.585497597
2,1, 7,21, 0,14, 0.00,60.00,SummerDesignDay
12,10992798.4461951
130,647901.634605448
2,1, 7,21, 0,15, 0.00,60.00,SummerDesignDay
12,10971683.2139158
130,647001.467838312
2,1, 7,21, 0,16, 0.00,60.00,SummerDesignDay
12,10885764.5975725
130,636007.005601019
2,1, 7,21, 0,17, 0.00,60.00,SummerDesignDay
12,11072082.7317514
130,641517.640627387
2,1, 7,21, 0,18, 0.00,60.00,SummerDesignDay
12,11535505.3607801
130,666870.130280949
2,1, 7,21, 0,19, 0.00,60.00,SummerDesignDay
12,11620039.5780084
130,691270.554416389
2,1, 7,21, 0,20, 0.00,60.00,SummerDesignDay
12,11784873.6951427
130,4632665.39626949
2,1, 7,21, 0,21, 0.00,60.00,SummerDesignDay
12,12310045.2458077
130,731486.487325135
2,1, 7,21, 0,22, 0.00,60.00,SummerDesignDay
12,11421761.6622923
130,735204.069351985
2,1, 7,21, 0,23, 0.00,60.00,SummerDesignDay
12,8319095.18365801
130,717724.076150139
2,1, 7,21, 0,24, 0.00,60.00,SummerDesignDay
12,5468466.39093048
130,701008.724575306
1,DENVER CENTENNIAL  GOLDEN   N ANN CLG .4% CONDNS DP=>MDB,  39.74,-105.18,  -7.00,1829.00
2,1, 7,21, 0, 1, 0.00,60.00,SummerDesignDay
12,2329378.55031794
130,8472733.98326447
2,1, 7,21, 0, 2, 0.00,60.00,SummerDesignDay
12,2177162.45307042
130,12132189.2671378
2,1, 7,21, 0, 3, 0.00,60.00,SummerDesignDay
12,2191067.98133258
130,15118122.8106677
2,1, 7,21, 0, 4, 0.00,60.00,SummerDesignDay
12,2297929.54863133
130,19460673.1727147
2,1, 7,21, 0, 5, 0.00,60.00,SummerDesignDay
12,2395199.19247397
130,19835642.5070451
2,1, 7,21, 0, 6, 0.00,60.00,SummerDesignDay
12,2576208.69680464
130,20828074.9812969
2,1, 7,21, 0, 7, 0.00,60.00,SummerDesignDay
12,2963187.02240628
130,20183465.7786816
2,1, 7,21, 0, 8, 0.00,60.00,SummerDesignDay
12,3369707.86901846
130,17738764.847034
2,1, 7,21, 0, 9, 0.00,60.00,SummerDesignDay
12,2969826.15601266
130,17726157.2772907
2,1, 7,21, 0,10, 0.00,60.00,SummerDesignDay
12,2486378.35727177
130,8724641.56881857
2,1, 7,21, 0,11, 0.00,60.00,SummerDesignDay
12,2177075.3261508
130,3424372.4408167
2,1, 7,21, 0,12, 0.00,60.00,SummerDesignDay
12,2061760.21127641
130,705784.505684879
2,1, 7,21, 0,13, 0.00,60.00,SummerDesignDay
12,1993106.21103407
130,687178.086022313
2,1, 7,21, 0,14, 0.00,60.00,SummerDesignDay
12,1950485.33066344
130,678141.171618473
2,1, 7,21, 0,15, 0.00,60.00,SummerDesignDay
12,2058580.1423758
130,670902.324240541
2,1, 7,21, 0,16, 0.00,60.00,SummerDesignDay
12,3534713.44336027
130,667466.53625863
2,1, 7,21, 0,17, 0.00,60.00,SummerDesignDay
12,4208646.32157569
130,4603299.26671557
2,1, 7,21, 0,18, 0.00,60.00,SummerDesignDay
12,4734567.32604104
130,706613.645977362
2,1, 7,21, 0,19, 0.00,60.00,SummerDesignDay
12,3960089.81926821
130,725257.641040697
2,1, 7,21, 0,20, 0.00,60.00,SummerDesignDay
12,3462173.45062553
130,738404.077491406
2,1, 7,21, 0,21, 0.00,60.00,SummerDesignDay
12,4106474.18073811
130,759175.717697954
2,1, 7,21, 0,22, 0.00,60.00,SummerDesignDay
12,4697791.83249069
130,769979.767712988
2,1, 7,21, 0,23, 0.00,60.00,SummerDesignDay
12,3934234.83059651
130,883136.703825027
2,1, 7,21, 0,24, 0.00,60.00,SummerDesignDay
12,3151601.17733342
130,5002294.27143143
1,DENVER CENTENNIAL  GOLDEN   N ANN CLG .4% CONDNS ENTH=>MDB,  39.74,-105.18,  -7.00,1829.00
2,1, 7,21, 0, 1, 0.00,60.00,SummerDesignDay
12,1787822.47115199
130,218585.692158482
2,1, 7,21, 0, 2, 0.00,60.00,SummerDesignDay
12,1395141.86920425
130,212991.765246596
2,1, 7,21, 0, 3, 0.00,60.00,SummerDesignDay
12,1213139.78768592
130,212991.765246596
2,1, 7,21, 0, 4, 0.00,60.00,SummerDesignDay
12,1276671.13921651
130,3837029.13802072
2,1, 7,21, 0, 5, 0.00,60.00,SummerDesignDay
12,1404210.42805947
130,4731428.69148835
2,1, 7,21, 0, 6, 0.00,60.00,SummerDesignDay
12,1602510.02560439
130,5987407.91691657
2,1, 7,21, 0, 7, 0.00,60.00,SummerDesignDay
12,2044189.91352871
130,6176535.163683
2,1, 7,21, 0, 8, 0.00,60.00,SummerDesignDay
12,2504261.88593657
130,4548035.83993919
2,1, 7,21, 0, 9, 0.00,60.00,SummerDesignDay
12,2174070.21908206
130,5597599.82187626
2,1, 7,21, 0,10, 0.00,60.00,SummerDesignDay
12,1960230.7865402
130,695922.763674395
2,1, 7,21, 0,11, 0.00,60.00,SummerDesignDay
12,1998801.65767928
130,681100.060773518
2,1, 7,21, 0,12, 0.00,60.00,SummerDesignDay
12,2061760.21127641
130,660889.725775352
2,1, 7,21, 0,13, 0.00,60.00,SummerDesignDay
12,7188993.39819942
130,653083.497155187
2,1, 7,21, 0,14, 0.00,60.00,SummerDesignDay
12,9943276.00135434
130,659785.665632979
2,1, 7,21, 0,15, 0.00,60.00,SummerDesignDay
12,10421690.9043814
130,661675.494600841
2,1, 7,21, 0,16, 0.00,60.00,SummerDesignDay
12,10366727.9828703
130,654929.901811256
2,1, 7,21, 0,17, 0.00,60.00,SummerDesignDay
12,10600794.568582
130,664008.977345467
2,1, 7,21, 0,18, 0.00,60.00,SummerDesignDay
12,11123653.1986639
130,4615403.9285982
2,1, 7,21, 0,19, 0.00,60.00,SummerDesignDay
12,11294055.5864776
130,719668.693328739
2,1, 7,21, 0,20, 0.00,60.00,SummerDesignDay
12,9783869.09986918
130,732351.924355689
2,1, 7,21, 0,21, 0.00,60.00,SummerDesignDay
12,7848043.39099748
130,740174.473130919
2,1, 7,21, 0,22, 0.00,60.00,SummerDesignDay
12,6522064.78191993
130,736448.589717039
2,1, 7,21, 0,23, 0.00,60.00,SummerDesignDay
12,4224689.92349262
130,717799.208798204
2,1, 7,21, 0,24, 0.00,60.00,SummerDesignDay
12,2872964.06254111
130,710372.329887611
1,DENVER CENTENNIAL  GOLDEN   N ANN CLG .4% CONDNS WB=>MDB,  39.74,-105.18,  -7.00,1829.00
2,1, 7,21, 0, 1, 0.00,60.00,SummerDesignDay
12,1787822.47115199
130,218585.692158482
2,1, 7,21, 0, 2, 0.00,60.00,SummerDesignDay
12,1395141.86920425
130,212991.765246596
2,1, 7,21, 0, 3, 0.00,60.00,SummerDesignDay
12,1213139.78768592
130,212991.765246596
2,1, 7,21, 0, 4, 0.00,60.00,SummerDesignDay
12,1311895.20103577
130,4381891.85567571
2,1, 7,21, 0, 5, 0.00,60.00,SummerDesignDay
12,1428674.5579186
130,5104305.44045844
2,1, 7,21, 0, 6, 0.00,60.00,SummerDesignDay
12,1630366.97606984
130,6411990.74798698
2,1, 7,21, 0, 7, 0.00,60.00,SummerDesignDay
12,2064512.97907342
130,6486289.96734258
2,1, 7,21, 0, 8, 0.00,60.00,SummerDesignDay
12,2521297.65353202
130,4807687.16211276
2,1, 7,21, 0, 9, 0.00,60.00,SummerDesignDay
12,2187710.5109561
130,5805506.6159444
2,1, 7,21, 0,10, 0.00,60.00,SummerDesignDay
12,1960230.7865402
130,696692.965362682
2,1, 7,21, 0,11, 0.00,60.00,SummerDesignDay
12,1998801.65767928
130,682230.432527919
2,1, 7,21, 0,12, 0.00,60.00,SummerDesignDay
12,2061760.21127641
130,662348.822625178
2,1, 7,21, 0,13, 0.00,60.00,SummerDesignDay
12,4664081.87147757
130,653152.940853777
2,1, 7,21, 0,14, 0.00,60.00,SummerDesignDay
12,6641714.20801225
130,660013.601749583
2,1, 7,21, 0,15, 0.00,60.00,SummerDesignDay
12,9129625.285498
130,665602.778674617
2,1, 7,21, 0,16, 0.00,60.00,SummerDesignDay
12,10083292.3337176
130,667453.142753031
2,1, 7,21, 0,17, 0.00,60.00,SummerDesignDay
12,10399158.6700163
130,680500.058267139
2,1, 7,21, 0,18, 0.00,60.00,SummerDesignDay
12,10372614.435039
130,4629396.98043548
2,1, 7,21, 0,19, 0.00,60.00,SummerDesignDay
12,9317979.6584659
130,725261.498641223
2,1, 7,21, 0,20, 0.00,60.00,SummerDesignDay
12,7833969.83585611
130,732718.408829076
2,1, 7,21, 0,21, 0.00,60.00,SummerDesignDay
12,6712835.38718713
130,740176.051590808
2,1, 7,21, 0,22, 0.00,60.00,SummerDesignDay
12,5891300.8719188
130,736445.677595945
2,1, 7,21, 0,23, 0.00,60.00,SummerDesignDay
12,3926698.57198866
130,717859.444712098
2,1, 7,21, 0,24, 0.00,60.00,SummerDesignDay
12,2872964.06254111
130,712851.436364604
1,DENVER CENTENNIAL  GOLDEN   N ANN HTG 99.6% CONDNS DB,  39.74,-105.18,  -7.00,1829.00
2,1,12,21, 0, 1, 0.00,60.00,WinterDesignDay
12,6567133.06572345
130,67888340.374557
2,1,12,21, 0, 2, 0.00,60.00,WinterDesignDay
12,6147122.29479674
130,67879898.7532921
2,1,12,21, 0, 3, 0.00,60.00,WinterDesignDay
12,5963180.56841762
130,67879898.7532921
2,1,12,21, 0, 4, 0.00,60.00,WinterDesignDay
12,5907505.70615892
130,69943817.5533131
2,1,12,21, 0, 5, 0.00,60.00,WinterDesignDay
12,5858666.93002912
130,68406887.8570759
2,1,12,21, 0, 6, 0.00,60.00,WinterDesignDay
12,6026536.1227945
130,68416154.6199709
2,1,12,21, 0, 7, 0.00,60.00,WinterDesignDay
12,6789985.79568644
130,68436433.6088903
2,1,12,21, 0, 8, 0.00,60.00,WinterDesignDay
12,7928847.75103704
130,72369871.1468685
2,1,12,21, 0, 9, 0.00,60.00,WinterDesignDay
12,7753937.84870683
130,68410481.4909171
2,1,12,21, 0,10, 0.00,60.00,WinterDesignDay
12,7037408.97711936
130,68380000.1466937
2,1,12,21, 0,11, 0.00,60.00,WinterDesignDay
12,6990066.69389156
130,68383864.2089052
2,1,12,21, 0,12, 0.00,60.00,WinterDesignDay
12,7066983.67169746
130,68387032.5949785
2,1,12,21, 0,13, 0.00,60.00,WinterDesignDay
12,6994249.50770434
130,68385156.460823
2,1,12,21, 0,14, 0.00,60.00,WinterDesignDay
12,6985095.87100516
130,68397062.6055777
2,1,12,21, 0,15, 0.00,60.00,WinterDesignDay
12,7046066.08936829
130,68405993.1017476
2,1,12,21, 0,16, 0.00,60.00,WinterDesignDay
12,7254109.69286413
130,72331945.7532797
2,1,12,21, 0,17, 0.00,60.00,WinterDesignDay
12,8259230.60982763
130,68429046.9707372
2,1,12,21, 0,18, 0.00,60.00,WinterDesignDay
12,10067585.3098606
130,68467840.5322325
2,1,12,21, 0,19, 0.00,60.00,WinterDesignDay
12,11239972.6717677
130,68493617.3926737
2,1,12,21, 0,20, 0.00,60.00,WinterDesignDay
12,11192632.1833713
130,68502612.8191219
2,1,12,21, 0,21, 0.00,60.00,WinterDesignDay
12,10614118.8113061
130,68511950.7446562
2,1,12,21, 0,22, 0.00,60.00,WinterDesignDay
12,10030975.8349413
130,68505043.0045232
2,1,12,21, 0,23, 0.00,60.00,WinterDesignDay
12,8890826.1279477
130,72398641.3773735
2,1,12,21, 0,24, 0.00,60.00,WinterDesignDay
12,7750022.44618949
130,68450840.5781592
1,DENVER CENTENNIAL  GOLDEN   N ANN HTG WIND 99.6% CONDNS WS=>MCDB,  39.74,-105.18,  -7.00,1829.00
2,1,12,21, 0, 1, 0.00,60.00,WinterDesignDay
12,4315257.68069213
130,33566293.0811975
2,1,12,21, 0, 2, 0.00,60.00,WinterDesignDay
12,3922041.80659517
130,33966246.9343556
2,1,12,21, 0, 3, 0.00,60.00,WinterDesignDay
12,3755728.62088016
130,34234933.0305794
2,1,12,21, 0, 4, 0.00,60.00,WinterDesignDay
12,3711160.90388702
130,36396374.9905973
2,1,12,21, 0, 5, 0.00,60.00,WinterDesignDay
12,3670883.21761827
130,35041907.6075529
2,1,12,21, 0, 6, 0.00,60.00,WinterDesignDay
12,3837288.29720584
130,35028033.8902047
2,1,12,21, 0, 7, 0.00,60.00,WinterDesignDay
12,4575927.09150159
130,34669575.0240452
2,1,12,21, 0, 8, 0.00,60.00,WinterDesignDay
12,5690430.59442038
130,34309570.2078084
2,1,12,21, 0, 9, 0.00,60.00,WinterDesignDay
12,5538547.46758548
130,38546790.7579419
2,1,12,21, 0,10, 0.00,60.00,WinterDesignDay
12,4856000.85555531
130,35110942.6887776
2,1,12,21, 0,11, 0.00,60.00,WinterDesignDay
12,4815220.90443927
130,35213776.6056449
2,1,12,21, 0,12, 0.00,60.00,WinterDesignDay
12,4900606.33053463
130,35345662.6672412
2,1,12,21, 0,13, 0.00,60.00,WinterDesignDay
12,4831841.39754788
130,35403345.9840612
2,1,12,21, 0,14, 0.00,60.00,WinterDesignDay
12,4821562.99952943
130,35397458.3851733
2,1,12,21, 0,15, 0.00,60.00,WinterDesignDay
12,4879055.38780868
130,35352892.5223606
2,1,12,21, 0,16, 0.00,60.00,WinterDesignDay
12,5081500.73411051
130,35270380.3387987
2,1,12,21, 0,17, 0.00,60.00,WinterDesignDay
12,6052050.18080826
130,38685963.7981917
2,1,12,21, 0,18, 0.00,60.00,WinterDesignDay
12,7778152.65703513
130,33548898.7573866
2,1,12,21, 0,19, 0.00,60.00,WinterDesignDay
12,8882104.18795758
130,32533970.0840005
2,1,12,21, 0,20, 0.00,60.00,WinterDesignDay
12,8809775.37122056
130,32164364.9893128
2,1,12,21, 0,21, 0.00,60.00,WinterDesignDay
12,8232062.08684181
130,32187815.0522893
2,1,12,21, 0,22, 0.00,60.00,WinterDesignDay
12,7658944.8766101
130,32334995.4138168
2,1,12,21, 0,23, 0.00,60.00,WinterDesignDay
12,6555336.11125179
130,32863796.8761052
2,1,12,21, 0,24, 0.00,60.00,WinterDesignDay
12,5456463.98905715
130,33477573.5274263
1,DENVER CENTENNIAL  GOLDEN   N ANN HUM_N 99.6% CONDNS DP=>MCDB,  39.74,-105.18,  -7.00,1829.00
2,1,12,21, 0, 1, 0.00,60.00,WinterDesignDay
12,5713787.28120873
130,54882037.0202993
2,1,12,21, 0, 2, 0.00,60.00,WinterDesignDay
12,5321837.5644536
130,55301289.0604069
2,1,12,21, 0, 3, 0.00,60.00,WinterDesignDay
12,5155526.11450483
130,55570001.6123802
2,1,12,21, 0, 4, 0.00,60.00,WinterDesignDay
12,5110927.28854368
130,57730969.4238378
2,1,12,21, 0, 5, 0.00,60.00,WinterDesignDay
12,5070627.68734839
130,56376168.0235782
2,1,12,21, 0, 6, 0.00,60.00,WinterDesignDay
12,5236672.07315696
130,56356796.7778039
2,1,12,21, 0, 7, 0.00,60.00,WinterDesignDay
12,5959682.10297672
130,55760131.482884
2,1,12,21, 0, 8, 0.00,60.00,WinterDesignDay
12,7086499.29520913
130,55587806.2468706
2,1,12,21, 0, 9, 0.00,60.00,WinterDesignDay
12,6934875.45464332
130,59828978.7188774
2,1,12,21, 0,10, 0.00,60.00,WinterDesignDay
12,6254344.30276384
130,56423849.3649093
2,1,12,21, 0,11, 0.00,60.00,WinterDesignDay
12,6199982.98390578
130,56319682.330903
2,1,12,21, 0,12, 0.00,60.00,WinterDesignDay
12,6299668.07769787
130,56669517.3403981
2,1,12,21, 0,13, 0.00,60.00,WinterDesignDay
12,6230853.52196451
130,56726444.3301728
2,1,12,21, 0,14, 0.00,60.00,WinterDesignDay
12,6220359.7335053
130,56717273.8494064
2,1,12,21, 0,15, 0.00,60.00,WinterDesignDay
12,6277514.26297507
130,56667558.4982539
2,1,12,21, 0,16, 0.00,60.00,WinterDesignDay
12,6479447.18275071
130,56577236.145629
2,1,12,21, 0,17, 0.00,60.00,WinterDesignDay
12,7448261.43823583
130,59966372.6198742
2,1,12,21, 0,18, 0.00,60.00,WinterDesignDay
12,9156639.88265719
130,54559166.0508559
2,1,12,21, 0,19, 0.00,60.00,WinterDesignDay
12,10271678.6296789
130,53713223.6179347
2,1,12,21, 0,20, 0.00,60.00,WinterDesignDay
12,10198583.1307625
130,53331933.1066398
2,1,12,21, 0,21, 0.00,60.00,WinterDesignDay
12,9621977.12396905
130,53372259.7845049
2,1,12,21, 0,22, 0.00,60.00,WinterDesignDay
12,9050444.58723995
130,53543593.0095801
2,1,12,21, 0,23, 0.00,60.00,WinterDesignDay
12,7949320.60483769
130,54110266.3890705
2,1,12,21, 0,24, 0.00,60.00,WinterDesignDay
12,6852870.08019722
130,54760951.9148044
1,RUN PERIOD 1,  39.74,-105.18,  -7.00,1829.00
2,1, 1, 1, 0, 1, 0.00,60.00,Sunday         
12,4666411.83207417
130,38516578.8870775
2,1, 1, 1, 0, 2, 0.00,60.00,Sunday         
12,4286434.38860013
130,39278591.9642371
2,1, 1, 1, 0, 3, 0.00,60.00,Sunday         
12,4123364.4526691
130,39678302.1430668
2,1, 1, 1, 0, 4, 0.00,60.00,Sunday         
12,3990736.8779431
130,40571529.0816965
2,1, 1, 1, 0, 5, 0.00,60.00,Sunday         
12,3957615.58894349
130,43171152.6487745
2,1, 1, 1, 0, 6, 0.00,60.00,Sunday         
12,4004125.28939238
130,37313660.2571795
2,1, 1, 1, 0, 7, 0.00,60.00,Sunday         
12,4714375.97391257
130,40049347.7490786
2,1, 1, 1, 0, 8, 0.00,60.00,Sunday         
12,5820575.69493556
130,38911671.2853765
2,1, 1, 1, 0, 9, 0.00,60.00,Sunday         
12,5583639.24945168
130,33332183.2557286
2,1, 1, 1, 0,10, 0.00,60.00,Sunday         
12,4774893.86589071
130,35072955.3710564
2,1, 1, 1, 0,11, 0.00,60.00,Sunday         
12,4600157.5706679
130,32803739.5756697
2,1, 1, 1, 0,12, 0.00,60.00,Sunday         
12,4681285.97802677
130,32801913.873582
2,1, 1, 1, 0,13, 0.00,60.00,Sunday         
12,4362916.1639417
130,29333906.7728646
2,1, 1, 1, 0,14, 0.00,60.00,Sunday         
12,4386281.48229252
130,26171147.9451069
2,1, 1, 1, 0,15, 0.00,60.00,Sunday         
12,4484520.49759538
130,31069528.4717449
2,1, 1, 1, 0,16, 0.00,60.00,Sunday         
12,4654727.68840316
130,26419625.8314722
2,1, 1, 1, 0,17, 0.00,60.00,Sunday         
12,5736935.30059798
130,31754799.4532572
2,1, 1, 1, 0,18, 0.00,60.00,Sunday         
12,7591940.87895977
130,28598330.4529552
2,1, 1, 1, 0,19, 0.00,60.00,Sunday         
12,8801745.17810884
130,33158109.9362231
2,1, 1, 1, 0,20, 0.00,60.00,Sunday         
12,9134018.09678384
130,38911748.9437069
2,1, 1, 1, 0,21, 0.00,60.00,Sunday         
12,8490513.11297561
130,37935461.170829
2,1, 1, 1, 0,22, 0.00,60.00,Sunday         
12,8003601.1895186
130,35447965.8079027
2,1, 1, 1, 0,23, 0.00,60.00,Sunday         
12,7195930.73571971
130,44843561.0175537
2,1, 1, 1, 0,24, 0.00,60.00,Sunday         
12,6146107.42792805
130,43045292.8001266
2,2, 1, 2, 0, 1, 0.00,60.00,Monday         
12,4878391.67084583
130,46591533.0918332
2,2, 1, 2, 0, 2, 0.00,60.00,Monday         
12,4602905.91090086
130,44862065.8943445
2,2, 1, 2, 0, 3, 0.00,60.00,Monday         
12,4511547.43106337
130,46273176.3529365
2,2, 1, 2, 0, 4, 0.00,60.00,Monday         
12,4584109.59653406
130,48224899.2309322
2,2, 1, 2, 0, 5, 0.00,60.00,Monday         
12,4661378.02638152
130,54061763.12779
2,2, 1, 2, 0, 6, 0.00,60.00,Monday         
12,5048869.83620903
130,53494350.99077
2,2, 1, 2, 0, 7, 0.00,60.00,Monday         
12,5845454.54030328
130,57944029.9116338
2,2, 1, 2, 0, 8, 0.00,60.00,Monday         
12,7000333.93447409
130,54274458.7642621
2,2, 1, 2, 0, 9, 0.00,60.00,Monday         
12,6736641.4707898
130,56810926.6430205
2,2, 1, 2, 0,10, 0.00,60.00,Monday         
12,7037412.57711936
130,72395196.3348583
2,2, 1, 2, 0,11, 0.00,60.00,Monday         
12,6990070.29389156
130,72403794.3216229
2,2, 1, 2, 0,12, 0.00,60.00,Monday         
12,7066987.27169747
130,72417546.6945676
2,2, 1, 2, 0,13, 0.00,60.00,Monday         
12,6994253.10770433
130,72448665.3683809
2,2, 1, 2, 0,14, 0.00,60.00,Monday         
12,6985099.47100516
130,68494880.7510217
2,2, 1, 2, 0,15, 0.00,60.00,Monday         
12,6662130.42731438
130,66470836.059941
2,2, 1, 2, 0,16, 0.00,60.00,Monday         
12,6673373.50690434
130,59537396.5995819
2,2, 1, 2, 0,17, 0.00,60.00,Monday         
12,6987097.87429588
130,52939593.0527607
2,2, 1, 2, 0,18, 0.00,60.00,Monday         
12,8544352.50750589
130,49151542.4496202
2,2, 1, 2, 0,19, 0.00,60.00,Monday         
12,9738786.1176234
130,45591069.6126357
2,2, 1, 2, 0,20, 0.00,60.00,Monday         
12,9895734.50418657
130,52641377.5096275
2,2, 1, 2, 0,21, 0.00,60.00,Monday         
12,9194191.38216002
130,50777071.0853523
2,2, 1, 2, 0,22, 0.00,60.00,Monday         
12,8677361.43491828
130,51781517.863902
2,2, 1, 2, 0,23, 0.00,60.00,Monday         
12,7714172.08197372
130,50526187.9085551
2,2, 1, 2, 0,24, 0.00,60.00,Monday         
12,6651652.759515
130,55618128.2877465
2,3, 1, 3, 0, 1, 0.00,60.00,Tuesday        
12,5596019.87022121
130,53605486.6699113
2,3, 1, 3, 0, 2, 0.00,60.00,Tuesday        
12,5282870.23258489
130,55225774.6550448
2,3, 1, 3, 0, 3, 0.00,60.00,Tuesday        
12,5201193.61037322
130,56784453.2724791
2,3, 1, 3, 0, 4, 0.00,60.00,Tuesday        
12,5251161.06913954
130,62314742.4124618
2,3, 1, 3, 0, 5, 0.00,60.00,Tuesday        
12,5180084.63585393
130,58044410.5133597
2,3, 1, 3, 0, 6, 0.00,60.00,Tuesday        
12,5354245.3315441
130,58148740.9858124
2,3, 1, 3, 0, 7, 0.00,60.00,Tuesday        
12,6063149.55796277
130,61261070.0927611
2,3, 1, 3, 0, 8, 0.00,60.00,Tuesday        
12,7374603.78581158
130,63904294.099445
2,3, 1, 3, 0, 9, 0.00,60.00,Tuesday        
12,7753941.44870682
130,72462574.8707474
2,3, 1, 3, 0,10, 0.00,60.00,Tuesday        
12,6526540.49919889
130,64516568.0939535
2,3, 1, 3, 0,11, 0.00,60.00,Tuesday        
12,6990070.29389156
130,72421058.3843503
2,3, 1, 3, 0,12, 0.00,60.00,Tuesday        
12,7066987.27169746
130,68504989.5150481
2,3, 1, 3, 0,13, 0.00,60.00,Tuesday        
12,6994253.10770433
130,72416072.9335972
2,3, 1, 3, 0,14, 0.00,60.00,Tuesday        
12,6985099.47100516
130,72426640.7869988
2,3, 1, 3, 0,15, 0.00,60.00,Tuesday        
12,7046069.68936829
130,68510157.2346796
2,3, 1, 3, 0,16, 0.00,60.00,Tuesday        
12,7254113.29286413
130,72438550.3930964
2,3, 1, 3, 0,17, 0.00,60.00,Tuesday        
12,8259234.20982763
130,68553626.9910298
2,3, 1, 3, 0,18, 0.00,60.00,Tuesday        
12,10067588.9098606
130,72536319.876794
2,3, 1, 3, 0,19, 0.00,60.00,Tuesday        
12,11239976.2717677
130,72562290.1699152
2,3, 1, 3, 0,20, 0.00,60.00,Tuesday        
12,11192635.7833713
130,72596880.0801587
2,3, 1, 3, 0,21, 0.00,60.00,Tuesday        
12,10614122.4113061
130,68698631.1192175
2,3, 1, 3, 0,22, 0.00,60.00,Tuesday        
12,10030979.4349413
130,72455401.1932997
2,3, 1, 3, 0,23, 0.00,60.00,Tuesday        
12,8890829.7279477
130,72418263.4001369
2,3, 1, 3, 0,24, 0.00,60.00,Tuesday        
12,7750026.04618949
130,68446477.8933771
2,4, 1, 4, 0, 1, 0.00,60.00,Wednesday      
12,6567136.66572345
130,72471716.3251096
2,4, 1, 4, 0, 2, 0.00,60.00,Wednesday      
12,5635211.75670218
130,60615214.4999546
2,4, 1, 4, 0, 3, 0.00,60.00,Wednesday      
12,5963184.16841762
130,68398354.6456488
2,4, 1, 4, 0, 4, 0.00,60.00,Wednesday      
12,5574212.45054937
130,63320812.0097628
2,4, 1, 4, 0, 5, 0.00,60.00,Wednesday      
12,5191810.77827042
130,62147421.0005884
2,4, 1, 4, 0, 6, 0.00,60.00,Wednesday      
12,5252477.18572012
130,56597817.2420519
2,4, 1, 4, 0, 7, 0.00,60.00,Wednesday      
12,5939476.3017143
130,59375340.895028
2,4, 1, 4, 0, 8, 0.00,60.00,Wednesday      
12,7928851.35103704
130,72511639.8907245
2,4, 1, 4, 0, 9, 0.00,60.00,Wednesday      
12,7753941.44870683
130,72471217.3340546
2,4, 1, 4, 0,10, 0.00,60.00,Wednesday      
12,7037412.57711936
130,72422290.8205717
2,4, 1, 4, 0,11, 0.00,60.00,Wednesday      
12,6990070.29389156
130,68529776.1941496
2,4, 1, 4, 0,12, 0.00,60.00,Wednesday      
12,7066987.27169746
130,72448381.3819512
2,4, 1, 4, 0,13, 0.00,60.00,Wednesday      
12,6994253.10770433
130,72418815.8720142
2,4, 1, 4, 0,14, 0.00,60.00,Wednesday      
12,6985099.47100516
130,68478571.7994271
2,4, 1, 4, 0,15, 0.00,60.00,Wednesday      
12,7046069.68936829
130,72413116.2499232
2,4, 1, 4, 0,16, 0.00,60.00,Wednesday      
12,7254113.29286413
130,72414238.4992458
2,4, 1, 4, 0,17, 0.00,60.00,Wednesday      
12,8259234.20982763
130,68512901.906891
2,4, 1, 4, 0,18, 0.00,60.00,Wednesday      
12,10067588.9098606
130,72470385.42103
2,4, 1, 4, 0,19, 0.00,60.00,Wednesday      
12,11239976.2717677
130,72492169.5414122
2,4, 1, 4, 0,20, 0.00,60.00,Wednesday      
12,11192635.7833713
130,68582452.6126605
2,4, 1, 4, 0,21, 0.00,60.00,Wednesday      
12,10614122.4113061
130,72577776.9340426
2,4, 1, 4, 0,22, 0.00,60.00,Wednesday      
12,10030979.4349413
130,72548897.3695163
2,4, 1, 4, 0,23, 0.00,60.00,Wednesday      
12,8890829.7279477
130,72521880.3784585
2,4, 1, 4, 0,24, 0.00,60.00,Wednesday      
12,7750026.04618949
130,68563904.6143496
2,5, 1, 5, 0, 1, 0.00,60.00,Thursday       
12,6567136.66572345
130,72454487.2459526
2,5, 1, 5, 0, 2, 0.00,60.00,Thursday       
12,6147125.89479674
130,68512731.9970371
2,5, 1, 5, 0, 3, 0.00,60.00,Thursday       
12,5963184.16841762
130,68520321.8055691
2,5, 1, 5, 0, 4, 0.00,60.00,Thursday       
12,5907509.30615892
130,68536320.4648413
2,5, 1, 5, 0, 5, 0.00,60.00,Thursday       
12,5858670.53002912
130,72464781.4769058
2,5, 1, 5, 0, 6, 0.00,60.00,Thursday       
12,6026539.7227945
130,68560077.4663027
2,5, 1, 5, 0, 7, 0.00,60.00,Thursday       
12,6789989.39568644
130,72450357.8654081
2,5, 1, 5, 0, 8, 0.00,60.00,Thursday       
12,7928851.35103704
130,72467703.13073
2,5, 1, 5, 0, 9, 0.00,60.00,Thursday       
12,7753941.44870683
130,72437141.5084713
2,5, 1, 5, 0,10, 0.00,60.00,Thursday       
12,7037412.57711936
130,72411713.889728
2,5, 1, 5, 0,11, 0.00,60.00,Thursday       
12,6990070.29389156
130,68487487.5157216
2,5, 1, 5, 0,12, 0.00,60.00,Thursday       
12,7066987.27169746
130,72425345.3167433
2,5, 1, 5, 0,13, 0.00,60.00,Thursday       
12,6994253.10770433
130,72401420.1941895
2,5, 1, 5, 0,14, 0.00,60.00,Thursday       
12,6985099.47100516
130,72413863.5344881
2,5, 1, 5, 0,15, 0.00,60.00,Thursday       
12,7046069.68936829
130,68502749.2584465
2,5, 1, 5, 0,16, 0.00,60.00,Thursday       
12,7254113.29286413
130,72394815.8802922
2,5, 1, 5, 0,17, 0.00,60.00,Thursday       
12,8259234.20982763
130,68508586.4236374
2,5, 1, 5, 0,18, 0.00,60.00,Thursday       
12,10067588.9098606
130,72450023.5357376
2,5, 1, 5, 0,19, 0.00,60.00,Thursday       
12,11239976.2717677
130,72453154.0177281
2,5, 1, 5, 0,20, 0.00,60.00,Thursday       
12,11192635.7833713
130,68553926.7445062
2,5, 1, 5, 0,21, 0.00,60.00,Thursday       
12,10614122.4113061
130,72492517.1168822
2,5, 1, 5, 0,22, 0.00,60.00,Thursday       
12,10030979.4349413
130,72568785.8483476
2,5, 1, 5, 0,23, 0.00,60.00,Thursday       
12,8890829.7279477
130,72537224.9994764
2,5, 1, 5, 0,24, 0.00,60.00,Thursday       
12,7750026.04618949
130,68574595.4252893
2,6, 1, 6, 0, 1, 0.00,60.00,Friday         
12,6567136.66572345
130,72459582.5031897
2,6, 1, 6, 0, 2, 0.00,60.00,Friday         
12,6147125.89479674
130,68500210.388773
2,6, 1, 6, 0, 3, 0.00,60.00,Friday         
12,5963184.16841762
130,68531737.8285111
2,6, 1, 6, 0, 4, 0.00,60.00,Friday         
12,5907509.30615892
130,68519532.7188167
2,6, 1, 6, 0, 5, 0.00,60.00,Friday         
12,5858670.53002912
130,72468848.182056
2,6, 1, 6, 0, 6, 0.00,60.00,Friday         
12,6026539.7227945
130,68535111.8347718
2,6, 1, 6, 0, 7, 0.00,60.00,Friday         
12,6789989.39568644
130,72466052.2802696
2,6, 1, 6, 0, 8, 0.00,60.00,Friday         
12,7928851.35103704
130,72465634.2915591
2,6, 1, 6, 0, 9, 0.00,60.00,Friday         
12,7753941.44870683
130,72409780.7261145
2,6, 1, 6, 0,10, 0.00,60.00,Friday         
12,7037412.57711936
130,72359335.529423
2,6, 1, 6, 0,11, 0.00,60.00,Friday         
12,6990070.29389156
130,68383930.8104622
2,6, 1, 6, 0,12, 0.00,60.00,Friday         
12,6823874.41682758
130,68585956.6763116
2,6, 1, 6, 0,13, 0.00,60.00,Friday         
12,5870994.83770643
130,55166456.3165223
2,6, 1, 6, 0,14, 0.00,60.00,Friday         
12,6839090.46270132
130,66147629.5699228
2,6, 1, 6, 0,15, 0.00,60.00,Friday         
12,5864385.26981277
130,54294875.1639599
2,6, 1, 6, 0,16, 0.00,60.00,Friday         
12,5055171.09305346
130,34869021.2103868
2,6, 1, 6, 0,17, 0.00,60.00,Friday         
12,8259234.20982763
130,72361234.9866958
2,6, 1, 6, 0,18, 0.00,60.00,Friday         
12,6386584.27758117
130,16265057.0998457
2,6, 1, 6, 0,19, 0.00,60.00,Friday         
12,8112904.32323303
130,20810126.6941615
2,6, 1, 6, 0,20, 0.00,60.00,Friday         
12,8246896.75624585
130,27510649.8027341
2,6, 1, 6, 0,21, 0.00,60.00,Friday         
12,7918521.53646648
130,31334498.4300903
2,6, 1, 6, 0,22, 0.00,60.00,Friday         
12,7538310.94739109
130,34421379.3433714
2,6, 1, 6, 0,23, 0.00,60.00,Friday         
12,6647636.42030903
130,34270540.7991514
2,6, 1, 6, 0,24, 0.00,60.00,Friday         
12,5618062.05389573
130,39864695.309243
2,7, 1, 7, 0, 1, 0.00,60.00,Saturday       
12,4594588.52768296
130,37940343.2951142
2,7, 1, 7, 0, 2, 0.00,60.00,Saturday       
12,4309869.24991543
130,40154235.3312494
2,7, 1, 7, 0, 3, 0.00,60.00,Saturday       
12,4212000.87551516
130,45470651.1348231
2,7, 1, 7, 0, 4, 0.00,60.00,Saturday       
12,4063945.18781413
130,40210827.2139972
2,7, 1, 7, 0, 5, 0.00,60.00,Saturday       
12,4083423.582782
130,41165695.1853161
2,7, 1, 7, 0, 6, 0.00,60.00,Saturday       
12,4171509.55206248
130,39864865.1218134
2,7, 1, 7, 0, 7, 0.00,60.00,Saturday       
12,4734805.39556261
130,40360988.0912518
2,7, 1, 7, 0, 8, 0.00,60.00,Saturday       
12,5887868.91443551
130,39938245.2195668
2,7, 1, 7, 0, 9, 0.00,60.00,Saturday       
12,5560456.53514868
130,36905009.1674935
2,7, 1, 7, 0,10, 0.00,60.00,Saturday       
12,4525742.87982397
130,31275250.7620951
2,7, 1, 7, 0,11, 0.00,60.00,Saturday       
12,4047915.45709607
130,24386390.1141764
2,7, 1, 7, 0,12, 0.00,60.00,Saturday       
12,3719350.98330178
130,14215572.6838841
2,7, 1, 7, 0,13, 0.00,60.00,Saturday       
12,3280491.84067233
130,12836497.4977006
2,7, 1, 7, 0,14, 0.00,60.00,Saturday       
12,3066989.8050865
130,6063111.93219498
2,7, 1, 7, 0,15, 0.00,60.00,Saturday       
12,3022844.95554778
130,8791562.13485422
2,7, 1, 7, 0,16, 0.00,60.00,Saturday       
12,3363109.84976775
130,6733381.71811298
2,7, 1, 7, 0,17, 0.00,60.00,Saturday       
12,4366000.81950011
130,10859454.7359877
2,7, 1, 7, 0,18, 0.00,60.00,Saturday       
12,6384922.8281443
130,14126342.9784394
2,7, 1, 7, 0,19, 0.00,60.00,Saturday       
12,7847846.26458237
130,14694074.2837408
2,7, 1, 7, 0,20, 0.00,60.00,Saturday       
12,8162445.24083985
130,24103523.1814962
2,7, 1, 7, 0,21, 0.00,60.00,Saturday       
12,7871109.67292156
130,28494954.2279859
2,7, 1, 7, 0,22, 0.00,60.00,Saturday       
12,7473799.32792946
130,31297802.913621
2,7, 1, 7, 0,23, 0.00,60.00,Saturday       
12,6488352.46286968
130,30134390.4113238
2,7, 1, 7, 0,24, 0.00,60.00,Saturday       
12,5476683.22343284
130,36766259.9135926
2,8, 1, 8, 0, 1, 0.00,60.00,Sunday         
12,4410182.26409907
130,35129701.7363817
2,8, 1, 8, 0, 2, 0.00,60.00,Sunday         
12,4045837.26812439
130,36129977.3772472